----- GAMESS execution script 'rungms' -----
This job is running on host logoc
under operating system Linux at Вс 21 мар 2021 22:52:15 MSK
Available scratch disk space (Kbyte units) at beginning of the job is
Файл.система   1K-блоков Использовано  Доступно Использовано% Cмонтировано в
/dev/nvme0n1   491208944       495364 465691816            1% /media/arthur/temp
GAMESS temporary binary files will be written to /media/arthur/temp
GAMESS supplementary output files will be written to /usr/local/gamess/output
Copying input file ./pentacene_nacme.inp to your run's scratch directory...
 
Assuming a single but multicore node.
 

 Distributed Data Interface kickoff program.
 Initiating 20 compute processes on 1 nodes to run the following command:
 /usr/local/gamess/gamess.01.x pentacene_nacme 

          *******************************************************
          *                                                     *
          *          GAMESS VERSION = 30 SEP 2020 (R2)          *
          *                                                     *
          *              doi.org/10.1063/5.0005188              *
          *                                                     *
          **************** 64 BIT LINUX VERSION *****************

  GAMESS HAS BEEN MADE POSSIBLE WITH IMPORTANT CONTRIBUTIONS FROM
  THE FOLLOWING INDIVIDUALS (IN ALPHABETICAL ORDER):

     IVANA ADAMOVIC, CHRISTINE AIKENS, TOMOKO AKAMA,
     YURI ALEXEEV, YURIKO AOKI, POOJA ARORA, TOSHIO ASADA,
     ANDREY ASADCHEV, KIM K. BALDRIDGE, PRADIPTA BANDYOPADHYAY,
     MARIA BARYSZ, ROB BELL, JONATHAN BENTZ, COLLEEN BERTONI,
     JERRY A. BOATZ, BRETT BODE, KURT BRORSEN, KURT R. BRORSEN,
     LAIMUTIS BYTAUTAS, CALEB CARLIN, LAURA CARRINGTON,
     GALINA CHABAN, BENOIT CHAMPAGNE, WEI CHEN, MAHITO CHIBA,
     DAN CHIPMAN, CHEOL HO CHOI, TANNER CULPITT,
     DIPAYAN DATTA, PAUL DAY, ALBERT DEFUSCO,
     NUWAN DESILVA, J. EMILIANO DEUSTUA,
     TIM DUDLEY, MICHEL DUPUIS, STEVEN T. ELBERT,
     DMITRI FEDOROV, ALEX FINDLATER, GRAHAM FLETCHER,
     MARK FREITAG, CHRISTIAN FRIEDL, DAVID GARMER,
     IGOR S. GERASIMOV, KURT GLAESEMANN, MARK S. GORDON,
     JEFFREY GOUR, FENG LONG GU, EMILIE B. GUIDEZ,
     ANASTASIA GUNINA, SHARON HAMMES-SCHIFFER, MASATAKE HARUTA,
     KIMIHIKO HIRAO, YASUHIRO IKABATA, TZVETELIN IORDANOV,
     STEPHAN IRLE, KAZUYA ISHIMURA, JOE IVANIC, FRANK JENSEN,
     JAN H. JENSEN, VISVALDAS KAIRYS, MUNEAKI KAMIYA,
     MICHIO KATOUDA, NAOAKI KAWAKAMI, DAN KEMP, BERNARD KIRTMAN,
     KAZUO KITAURA, MARIUSZ KLOBUKOWSKI, MASATO KOBAYASHI,
     PRAKASHAN KORAMBATH, JACEK KORCHOWIEC, SHIRO KOSEKI,
     KAROL KOWALSKI, JIMMY KROMANN, STANISLAW KUCHARSKI,
     HENRY KURTZ, SAROM SOK LEANG, HUI LI, SHUHUA LI, WEI LI,
     JESSE LUTZ, ALEKSANDR O. LYKHIN, MARCIN MAKOWSKI,
     JOANI MATO, NIKITA MATSUNAGA, BENEDETTA MENNUCCI,
     GRANT MERRILL, NORIYUKI MINEZAWA, VLADIMIR MIRONOV,
     EISAKU MIYOSHI, JOHN A. MONTGOMERY JR., HIROTOSHI MORI,
     JONATHAN MULLIN, MONIKA MUSIAL, SHIGERU NAGASE,
     TAKESHI NAGATA, HIROMI NAKAI, TAKAHITO NAKAJIMA,
     YUYA NAKAJIMA, HARUYUKI NAKANO, HIROYA NAKATA, SEAN NEDD,
     HEATHER NETZLOFF, KIET A. NGUYEN, YOSHIO NISHIMOTO,
     BOSILJKA NJEGIC, RYAN OLSON, MIKE PAK, ROBERTO PEVERATI,
     BUU PHAM, PIOTR PIECUCH, ANNA POMOGAEVA, DAVID POOLE,
     SPENCER PRUITT, OLIVIER QUINET, LUKE ROSKOP,
     KLAUS RUEDENBERG, ANDREW SAND, TOSAPORN SATTASATHUCHANA,
     NOZOMI SAWADA, MICHAEL W. SCHMIDT, PATRICK E. SCHNEIDER,
     JUNJI SEINO, PRACHI SHARMA, JUN SHEN, JIM SHOEMAKER,
     YINAN SHU, DEJUN SI, JONATHAN SKONE, LYUDMILA SLIPCHENKO,
     TONY SMITH, JIE SONG, MARK SPACKMAN, CASPER STEINMANN,
     WALT STEVENS, PEIFENG SU, SHUJUN SU, CHET SWALINA,
     TETSUYA TAKETSUGU, ZHEN TAO, NANDUN THELLAMUREGE
     SEIKEN TOKURA, JACOPO TOMASI, TSUGUKI TOUMA, TAKAO TSUNEDA,
     HIROAKI UMEDA, JORGE LUIS GALVEZ VALLEJO, YALI WANG,
     SIMON WEBB, AARON WEST, THERESA L. WINDUS, MARTA WLOCH,
     PENG XU, KIYOSHI YAGI, SUSUMU YANAGISAWA, YANG YANG,
     SOOHAENG YOO, TAKESHI YOSHIKAWA, FEDERICO ZAHARIEV,
     TOBY ZENG

  WHO ARE SUPPORTED BY THEIR INSTITUTION/UNIVERSITY/COMPANY/GROUP
  (IN ALPHABETICAL ORDER):

     EP ANALYTICS, FACULTES UNIVERSITAIRES NOTRE-DAME DE LA PAIX,
     INSTITUTE FOR MOLECULAR SCIENCE, IOWA STATE UNIVERSITY,
     JACKSON STATE UNIVERSITY, JOHANNES KEPLER UNIVERSITY LINZ,
     KYUSHU UNIVERSITY, MICHIGAN STATE UNIVERSITY,
     MIE UNIVERSITY, MOSCOW STATE UNIVERSITY,
     N. COPERNICUS UNIVERSITY, NAGOYA UNIVERSITY,
     NANJING UNIVERSITY, NAT. INST. OF ADVANCED INDUSTRIAL
     SCIENCE AND TECHNOLOGY, NATIONAL INST. OF STANDARDS AND
     TECHNOLOGY, NESMEYANOV INSTITUTE OF ORGANOELEMENT COMPOUNDS
     OF RUSSIAN ACADEMY OF SCIENCES, OSAKA PREFECTURE UNIVERSITY,
     PENNSYLVANIA STATE UNIVERSITY, TOKYO INSTITUTE OF TECHNOLOGY,
     UNIVERSITY OF AARHUS, UNIVERSITY OF ALBERTA,
     UNIVERSITY OF CALIFORNIA AT SANTA BARBARA,
     UNIVERSITY OF COPENHAGEN, UNIVERSITY OF IOWA,
     UNIVERSITY OF MEMPHIS, UNIVERSITY OF MINNESOTA,
     UNIVERSITY OF NEBRASKA, UNIVERSITY OF NEW ENGLAND,
     UNIVERSITY OF NOTRE DAME, UNIVERSITY OF PISA,
     UNIVERSITY OF SILESIA, UNIVERSITY OF TOKYO,
     UNIVERSITY OF ZURICH, WASEDA UNIVERSITY, YALE UNIVERSITY

  GAMESS SOFTWARE MANAGEMENT TEAM FOR THIS RELEASE:
     MARK S. GORDON (TEAM LEAD),
     BRETT BODE (SENIOR ADVISOR),
     GIUSEPPE BARCA,
     COLLEEN BERTONI,
     KRISTOPHER KEIPERT (ADVISOR),
     SAROM S. LEANG (DEVELOPMENT LEAD),
     BUU PHAM,
     JORGE LUIS GALVEZ VALLEJO (WEBSITE ADMINISTRATOR),
     PENG XU


 PARALLEL VERSION RUNNING ON       20 PROCESSORS IN        1 NODES.

 EXECUTION OF GAMESS BEGUN 22:52:16 21-MAR-2021    

            ECHO OF THE FIRST FEW INPUT CARDS -
 INPUT CARD> $CONTRL SCFTYP=MCSCF RUNTYP=nacme EXETYP=run                                   
 INPUT CARD> MAXIT=70 MULT=1 $END                                                           
 INPUT CARD> $SYSTEM TIMLIM=525600 MWORDS=50 MEMDDI=700 $END                                
 INPUT CARD> $SCF DIIS=.t. SOSCF=.f. DIRSCF=.T.  $END                                       
 INPUT CARD> $BASIS GBASIS=N31 NGAUSS=6 NDFUNC=1 $END                                       
 INPUT CARD> $GUESS GUESS=moread norb=77 $end                                               
 INPUT CARD> $FORCE METHOD=SEMINUM $END                                                     
 INPUT CARD> $mcscf cistep=ALDET focas=.f. soscf=.f. fullnr=.t. maxit=500                   
 INPUT CARD>        micit=5 $end                                                            
 INPUT CARD> $DET   GROUP=C1 NCORE=69 NELS=8 NACT=8 NSTATE=4                                
 INPUT CARD>        WSTATE(1)=1.,1. iroot=0 $END                                            
 INPUT CARD> $cpmchf gcro=.t. $END                                                          
 INPUT CARD> $DATA                                                                          
 INPUT CARD>Pentacene                                                                       
 INPUT CARD>Cs                                                                              
 INPUT CARD>                                                                                
 INPUT CARD> C           6.0  -6.1480598666  -0.7026067249   0.0000000000                   
 INPUT CARD> C           6.0  -4.9475334560  -1.4004961917   0.0000000000                   
 INPUT CARD> C           6.0  -3.7067817843  -0.7201086523   0.0000000000                   
 INPUT CARD> C           6.0  -3.7072179560   0.7248978883   0.0000000000                   
 INPUT CARD> C           6.0  -4.9483859797   1.4045296829   0.0000000000                   
 INPUT CARD> C           6.0  -6.1484870475   0.7059051480   0.0000000000                   
 INPUT CARD> C           6.0  -2.4661422436  -1.4001229783   0.0000000000                   
 INPUT CARD> C           6.0  -2.4669900101   1.4056651214   0.0000000000                   
 INPUT CARD> C           6.0  -1.2379841223   0.7314731854   0.0000000000                   
 INPUT CARD> C           6.0  -1.2375464240  -0.7251879921   0.0000000000                   
 INPUT CARD> C           6.0   0.0004108506  -1.3994078634   0.0000000000                   
 INPUT CARD> H           1.0   0.0007254825  -2.4880743858   0.0000000000                   
 INPUT CARD> C           6.0   1.2379620348  -0.7244433330   0.0000000000                   
 INPUT CARD> C           6.0  -0.0004325183   1.4064383950   0.0000000000                   
 INPUT CARD> H           1.0  -2.4676291204  -2.4887421571   0.0000000000                   
 INPUT CARD> H           1.0  -7.0901198185  -1.2442387107   0.0000000000                   
 INPUT CARD> H           1.0  -4.9475189418  -2.4883479749   0.0000000000                   
 INPUT CARD> H           1.0  -4.9490205959   2.4923802807   0.0000000000                   
 INPUT CARD> H           1.0  -7.0908815003   1.2469538094   0.0000000000                   
 INPUT CARD> H           1.0  -2.4691145033   2.4942832310   0.0000000000                   
 INPUT CARD> H           1.0  -0.0007476487   2.4951051247   0.0000000000                   
 INPUT CARD> C           6.0   1.2375257787   0.7322190942   0.0000000000                   
 INPUT CARD> C           6.0   2.4661230416   1.4071533231   0.0000000000                   
 INPUT CARD> C           6.0   3.7067617681   0.7271371734   0.0000000000                   
 INPUT CARD> H           1.0   2.4676126559   2.4957727575   0.0000000000                   
 INPUT CARD> C           6.0   3.7071974849  -0.7178690673   0.0000000000                   
 INPUT CARD> C           6.0   4.9475130061   1.4075245380   0.0000000000                   
 INPUT CARD> C           6.0   2.4669688877  -1.3986336479   0.0000000000                   
 INPUT CARD> C           6.0   4.9483646286  -1.3975014939   0.0000000000                   
 INPUT CARD> C           6.0   6.1480391840   0.7096340409   0.0000000000                   
 INPUT CARD> H           1.0   4.9474982282   2.4953762059   0.0000000000                   
 INPUT CARD> H           1.0   2.4690936806  -2.4872516188   0.0000000000                   
 INPUT CARD> H           1.0   4.9489982659  -2.4853517491   0.0000000000                   
 INPUT CARD> C           6.0   6.1484663740  -0.6988771849   0.0000000000                   
   50000000 WORDS OF MEMORY AVAILABLE

     BASIS OPTIONS
     -------------
     GBASIS=N31          IGAUSS=       6      POLAR=POPN31  
     NDFUNC=       1     NFFUNC=       0     DIFFSP=       F
     NPFUNC=       0      DIFFS=       F     BASNAM=        


     RUN TITLE
     ---------
 Pentacene                                                                       

 THE POINT GROUP OF THE MOLECULE IS CS      
 THE ORDER OF THE PRINCIPAL AXIS IS     0

 ATOM      ATOMIC                      COORDINATES (BOHR)
           CHARGE         X                   Y                   Z
 C           6.0   -11.6181485040       -1.3277341872        0.0000000000
 C           6.0    -9.3494825469       -2.6465540492        0.0000000000
 C           6.0    -7.0048018686       -1.3608080342        0.0000000000
 C           6.0    -7.0056261136        1.3698583780        0.0000000000
 C           6.0    -9.3510935831        2.6541762423        0.0000000000
 C           6.0   -11.6189557588        1.3339673030        0.0000000000
 C           6.0    -4.6603330871       -2.6458487781        0.0000000000
 C           6.0    -4.6619351335        2.6563219099        0.0000000000
 C           6.0    -2.3394507683        1.3822838878        0.0000000000
 C           6.0    -2.3386236384       -1.3704065947        0.0000000000
 C           6.0     0.0007763951       -2.6444974069        0.0000000000
 H           1.0     0.0013709631       -4.7017788262        0.0000000000
 C           6.0     2.3394090290       -1.3689993930        0.0000000000
 C           6.0    -0.0008173411        2.6577831852        0.0000000000
 H           1.0    -4.6631428769       -4.7030407310        0.0000000000
 H           1.0   -13.3983836771       -2.3512702265        0.0000000000
 H           1.0    -9.3494551191       -4.7022958347        0.0000000000
 H           1.0    -9.3522928338        4.7099157877        0.0000000000
 H           1.0   -13.3998230470        2.3564010191        0.0000000000
 H           1.0    -4.6659498435        4.7135118424        0.0000000000
 H           1.0    -0.0014128512        4.7150649962        0.0000000000
 C           6.0     2.3385846245        1.3836934510        0.0000000000
 C           6.0     4.6602968006        2.6591342034        0.0000000000
 C           6.0     7.0047640435        1.3740900132        0.0000000000
 H           1.0     4.6631117635        4.7163266393        0.0000000000
 C           6.0     7.0055874288       -1.3565758323        0.0000000000
 C           6.0     9.3494439022        2.6598356978        0.0000000000
 C           6.0     4.6618952180       -2.6430343517        0.0000000000
 C           6.0     9.3510532354       -2.6408948909        0.0000000000
 C           6.0    11.6181094195        1.3410138889        0.0000000000
 H           1.0     9.3494159760        4.7155772654        0.0000000000
 H           1.0     4.6659104943       -4.7002240220        0.0000000000
 H           1.0     9.3522506363       -4.6966337889        0.0000000000
 C           6.0    11.6189166916       -1.3206863785        0.0000000000
 H           1.0    13.3983438827        2.3645514755        0.0000000000
 H           1.0    13.3997848261       -2.3431184934        0.0000000000

          INTERNUCLEAR DISTANCES (ANGS.)
          ------------------------------

                1 C          2 C          3 C          4 C          5 C     

   1 C       0.0000000    1.3886372 *  2.4413408 *  2.8276277 *  2.4247147 *
   2 C       1.3886372 *  0.0000000    1.4150590 *  2.4608296 *  2.8050260 *
   3 C       2.4413408 *  1.4150590 *  0.0000000    1.4450066 *  2.4608269 *
   4 C       2.8276277 *  2.4608296 *  1.4450066 *  0.0000000    1.4150609 *
   5 C       2.4247147 *  2.8050260 *  2.4608269 *  1.4150609 *  0.0000000  
   6 C       1.4085119 *  2.4247095 *  2.8276209 *  2.4413430 *  1.3886392 *
   7 C       3.7474053    2.4813912 *  1.4147812 *  2.4608906 *  3.7453452  
   8 C       4.2420615    3.7453487    2.4608937 *  1.4147825 *  2.4813962 *
   9 C       5.1152154    4.2785570    2.8639224 *  2.4692426 *  3.7709531  
  10 C       4.9105654    3.7709475    2.4692406 *  2.8639180 *  4.2785544  
  11 C       6.1878287    4.9479444    3.7689156    4.2730769    5.6879395  
  12 H       6.4027694    5.0663688    4.1074704    4.9063261    6.2965126  
  13 C       7.3860542    6.2223309    4.9447457    5.1531927    6.5424329  
  14 C       6.4993379    5.6879425    4.2730817    3.7689197    4.9479538  
  15 H       4.0909474    2.7081737 *  2.1595286 *  3.4444249    4.6164619  
  16 H       1.0866656 *  2.1482767 *  3.4236952    3.9142718    3.4063173  
  17 H       2.1517831 *  1.0878518 *  2.1601155 *  3.4443135    3.8928778  
  18 H       3.4125705    3.8928768    3.4443058    2.1601083 *  1.0878508 *
  19 H       2.1655713 *  3.4063077    3.9142644    3.4237000    2.1482824 *
  20 H       4.8738839    4.6164778    3.4444354    2.1595427 *  2.7082005 *
  21 H       6.9292719    6.2965387    4.9063519    4.1074999    5.0664070  
  22 C       7.5236693    6.5424332    5.1531964    4.9447492    6.2223393  
  23 C       8.8687786    7.9274964    6.5291651    6.2109268    7.4145095  
  24 C       9.9579956    8.9119947    7.5534858    7.4139801    8.6816152  
  25 H       9.1901820    8.3764732    6.9616837    6.4237474    7.4958553  
  26 C       9.8552692    8.6816097    7.4139796    7.5534848    8.9119976  
  27 C      11.2944407   10.2857632    8.9119942    8.6816097    9.8958994  
  28 C       8.6430998    7.4145026    6.2109253    6.5291630    7.9274972  
  29 C      11.1181615    9.8958985    8.6816139    8.9119969   10.2857694  
  30 C      12.3769332   11.2944403    9.9579948    9.8552690   11.1181622  
  31 H      11.5472293   10.6343535    9.2323294    8.8339519    9.9558260  
  32 H       8.8000166    7.4958252    6.4237242    6.9616614    8.3764531  
  33 H      11.2393451    9.9558150    8.8339465    9.2323227   10.6343496  
  34 C      12.2965268   11.1181600    9.8552710    9.9579942   11.2944434  
  35 H      13.3815719   12.3262499   10.9753793   10.8101393   12.0394603  
  36 H      13.2498205   12.0394656   10.8101482   10.9753835   12.3262571  

                6 C          7 C          8 C          9 C         10 C     

   1 C       1.4085119 *  3.7474053    4.2420615    5.1152154    4.9105654  
   2 C       2.4247095 *  2.4813912 *  3.7453487    4.2785570    3.7709475  
   3 C       2.8276209 *  1.4147812 *  2.4608937 *  2.8639224 *  2.4692406 *
   4 C       2.4413430 *  2.4608906 *  1.4147825 *  2.4692426 *  2.8639180 *
   5 C       1.3886392 *  3.7453452    2.4813962 *  3.7709531    4.2785544  
   6 C       0.0000000    4.2420535    3.7474104    4.9105695    5.1152092  
   7 C       4.2420535    0.0000000    2.8057882 *  2.4600965 *  1.4017792 *
   8 C       3.7474104    2.8057882 *  0.0000000    1.4017811 *  2.4600948 *
   9 C       4.9105695    2.4600965 *  1.4017811 *  0.0000000    1.4566612 *
  10 C       5.1152092    1.4017792 *  2.4600948 *  1.4566612 *  0.0000000  
  11 C       6.4993298    2.4665532 *  3.7358401    2.4646047 *  1.4096491 *
  12 H       6.9292366    2.6961221 *  4.6098619    3.4496214    2.1543179 *
  13 C       7.5236645    3.7652266    4.2736438    2.8722817 *  2.4755086 *
  14 C       6.1878366    3.7358414    2.4665576 *  1.4096496 *  2.4646058 *
  15 H       4.8738575    1.0886202 *  3.8944073    3.4470007    2.1501690 *
  16 H       2.1655792 *  4.6266044    5.3287259    6.1766439    5.8755450  
  17 H       3.4125617    2.7095136 *  4.6169646    4.9120156    4.1076306  
  18 H       2.1517930 *  4.6169542    2.7095065 *  4.1076253    4.9120043  
  19 H       1.0866651 *  5.3287174    4.6266145    5.8755534    6.1766394  
  20 H       4.0909752    3.8944073    1.0886202 *  2.1501584 *  3.4469922  
  21 H       6.4028069    4.6098777    2.6961511 *  2.1543332 *  3.4496317  
  22 C       7.3860597    4.2736448    3.7652313    2.4755100 *  2.8722844 *
  23 C       8.6431045    5.6752129    4.9331133    3.7652295    4.2736456  
  24 C       9.8552717    6.5291638    6.2109268    4.9447478    5.1531963  
  25 H       8.8000455    6.2864888    5.0535768    4.1041687    4.9094594  
  26 C       9.9579943    6.2109254    6.5291645    5.1531946    4.9447493  
  27 C      11.1181602    7.9274945    7.4145032    6.2223324    6.5424325  
  28 C       8.8687747    4.9331114    5.6752129    4.2736439    3.7652308  
  29 C      11.2944427    7.4145073    7.9274982    6.5424341    6.2223389  
  30 C      12.2965268    8.8687765    8.6431006    7.3860556    7.5236686  
  31 H      11.2393548    8.3747823    7.4941381    6.4320717    6.9732927  
  32 H       9.1901549    5.0535534    6.2864714    4.9094414    4.1041502  
  33 H      11.5472205    7.4941331    8.3747773    6.9732857    6.4320690  
  34 C      12.3769333    8.6431029    8.8687760    7.5236662    7.3860597  
  35 H      13.2498141    9.9172380    9.5583359    8.3442885    8.5589747  
  36 H      13.3815768    9.5583461    9.9172410    8.5589764    8.3442992  

               11 C         12 H         13 C         14 C         15 H     

   1 C       6.1878287    6.4027694    7.3860542    6.4993379    4.0909474  
   2 C       4.9479444    5.0663688    6.2223309    5.6879425    2.7081737 *
   3 C       3.7689156    4.1074704    4.9447457    4.2730817    2.1595286 *
   4 C       4.2730769    4.9063261    5.1531927    3.7689197    3.4444249  
   5 C       5.6879395    6.2965126    6.5424329    4.9479538    4.6164619  
   6 C       6.4993298    6.9292366    7.5236645    6.1878366    4.8738575  
   7 C       2.4665532 *  2.6961221 *  3.7652266    3.7358414    1.0886202 *
   8 C       3.7358401    4.6098619    4.2736438    2.4665576 *  3.8944073  
   9 C       2.4646047 *  3.4496214    2.8722817 *  1.4096496 *  3.4470007  
  10 C       1.4096491 *  2.1543179 *  2.4755086 *  2.4646058 *  2.1501690 *
  11 C       0.0000000    1.0886666 *  1.4096489 *  2.8058464 *  2.6977529 *
  12 H       1.0886666 *  0.0000000    2.1543326 *  3.8945130    2.4683547 *
  13 C       1.4096489 *  2.1543326 *  0.0000000    2.4646050 *  4.1041633  
  14 C       2.8058464 *  3.8945130    2.4646050 *  0.0000000    4.6108015  
  15 H       2.6977529 *  2.4683547 *  4.1041633    4.6108015    0.0000000  
  16 H       7.0922283    7.1991120    8.3442875    7.5689996    4.7870877  
  17 H       5.0663399    4.9482444    6.4320708    6.2962707    2.4798899 *
  18 H       6.2962597    7.0217459    6.9732853    5.0663393    5.5649694  
  19 H       7.5689932    8.0150686    8.5589743    7.0922424    5.9438949  
  20 H       4.6107902    5.5609349    4.9094416    2.6977393 *  4.9830256  
  21 H       3.8945132    4.9831797    3.4496223    1.0886668 *  5.5609566  
  22 C       2.4646068 *  3.4496326    1.4566625 *  1.4096497 *  4.9094566  
  23 C       3.7358429    4.6098790    2.4600983 *  2.4665557 *  6.2864865  
  24 C       4.2730821    4.9063520    2.8639235 *  3.7689176    6.9616796  
  25 H       4.6108044    5.5609590    3.4470034    2.6977576 *  7.0144138  
  26 C       3.7689206    4.1075006    2.4692442 *  4.2730788    6.4237431  
  27 C       5.6879424    6.2965386    4.2785576    4.9479456    8.3764686  
  28 C       2.4665582 *  2.6961524 *  1.4017812 *  3.7358398    5.0535724  
  29 C       4.9479541    5.0664072    3.7709541    5.6879409    7.4958501  
  30 C       6.4993378    6.9292716    5.1152161    6.1878300    9.1901769  
  31 H       6.2962700    7.0217762    4.9120155    5.0663403    8.9345145  
  32 H       2.6977396 *  2.4683683 *  2.1501577 *  4.6107897    4.9367230  
  33 H       5.0663391    4.9482735    4.1076256    6.2962604    7.4166282  
  34 C       6.1878373    6.4028076    4.9105709    6.4993316    8.8000408  
  35 H       7.5689993    8.0151036    6.1766443    7.0922290   10.2634219  
  36 H       7.0922438    7.1991598    5.8755554    7.5689951    9.6397242  

               16 H         17 H         18 H         19 H         20 H     

   1 C       1.0866656 *  2.1517831 *  3.4125705    2.1655713 *  4.8738839  
   2 C       2.1482767 *  1.0878518 *  3.8928768    3.4063077    4.6164778  
   3 C       3.4236952    2.1601155 *  3.4443058    3.9142644    3.4444354  
   4 C       3.9142718    3.4443135    2.1601083 *  3.4237000    2.1595427 *
   5 C       3.4063173    3.8928778    1.0878508 *  2.1482824 *  2.7082005 *
   6 C       2.1655792 *  3.4125617    2.1517930 *  1.0866651 *  4.0909752  
   7 C       4.6266044    2.7095136 *  4.6169542    5.3287174    3.8944073  
   8 C       5.3287259    4.6169646    2.7095065 *  4.6266145    1.0886202 *
   9 C       6.1766439    4.9120156    4.1076253    5.8755534    2.1501584 *
  10 C       5.8755450    4.1076306    4.9120043    6.1766394    3.4469922  
  11 C       7.0922283    5.0663399    6.2962597    7.5689932    4.6107902  
  12 H       7.1991120    4.9482444    7.0217459    8.0150686    5.5609349  
  13 C       8.3442875    6.4320708    6.9732853    8.5589743    4.9094416  
  14 C       7.5689996    6.2962707    5.0663393    7.0922424    2.6977393 *
  15 H       4.7870877    2.4798899 *  5.5649694    5.9438949    4.9830256  
  16 H       0.0000000    2.4776090 *  4.3065795    2.4911926 *  5.9439243  
  17 H       2.4776090 *  0.0000000    4.9807285    4.3065627    5.5649890  
  18 H       4.3065795    4.9807285    0.0000000    2.4776310 *  2.4799068 *
  19 H       2.4911926 *  4.3065627    2.4776310 *  0.0000000    4.7871245  
  20 H       5.9439243    5.5649890    2.4799068 *  4.7871245    0.0000000  
  21 H       8.0151039    7.0217769    4.9482737    7.1991583    2.4683670 *
  22 C       8.5589758    6.9732941    6.4320699    8.3442986    4.1041506  
  23 C       9.9172404    8.3747846    7.4941359    9.5583471    5.0535553  
  24 C      10.9753804    9.2323301    8.8339488   10.8101484    6.4237258  
  25 H      10.2634271    8.9345194    7.4166340    9.6397282    4.9367274  
  26 C      10.8101400    8.8339522    9.2323243   10.9753833    6.9616630  
  27 C      12.3262505   10.6343538    9.9558169   12.0394653    7.4958260  
  28 C       9.5583358    7.4941382    8.3747770    9.9172394    6.2864713  
  29 C      12.0394600    9.9558253   10.6343507   12.3262562    8.3764542  
  30 C      13.3815721   11.5472291   11.2393470   13.2498201    8.8000176  
  31 H      12.6051167   11.0792090    9.8965193   12.1029395    7.4166128  
  32 H       9.6396911    7.4166127    8.9344923   10.2634018    7.0143845  
  33 H      12.1029222    9.8965177   11.0791964   12.6051105    8.9344928  
  34 C      13.2498145   11.2393548   11.5472222   13.3815765    9.1901563  
  35 H      14.3981300   12.6051164   12.1029235   14.1809809    9.6396913  
  36 H      14.1809817   12.1029401   12.6051124   14.3981386   10.2634033  

               21 H         22 C         23 C         24 C         25 H     

   1 C       6.9292719    7.5236693    8.8687786    9.9579956    9.1901820  
   2 C       6.2965387    6.5424332    7.9274964    8.9119947    8.3764732  
   3 C       4.9063519    5.1531964    6.5291651    7.5534858    6.9616837  
   4 C       4.1074999    4.9447492    6.2109268    7.4139801    6.4237474  
   5 C       5.0664070    6.2223393    7.4145095    8.6816152    7.4958553  
   6 C       6.4028069    7.3860597    8.6431045    9.8552717    8.8000455  
   7 C       4.6098777    4.2736448    5.6752129    6.5291638    6.2864888  
   8 C       2.6961511 *  3.7652313    4.9331133    6.2109268    5.0535768  
   9 C       2.1543332 *  2.4755100 *  3.7652295    4.9447478    4.1041687  
  10 C       3.4496317    2.8722844 *  4.2736456    5.1531963    4.9094594  
  11 C       3.8945132    2.4646068 *  3.7358429    4.2730821    4.6108044  
  12 H       4.9831797    3.4496326    4.6098790    4.9063520    5.5609590  
  13 C       3.4496223    1.4566625 *  2.4600983 *  2.8639235 *  3.4470034  
  14 C       1.0886668 *  1.4096497 *  2.4665557 *  3.7689176    2.6977576 *
  15 H       5.5609566    4.9094566    6.2864865    6.9616796    7.0144138  
  16 H       8.0151039    8.5589758    9.9172404   10.9753804   10.2634271  
  17 H       7.0217769    6.9732941    8.3747846    9.2323301    8.9345194  
  18 H       4.9482737    6.4320699    7.4941359    8.8339488    7.4166340  
  19 H       7.1991583    8.3442986    9.5583471   10.8101484    9.6397282  
  20 H       2.4683670 *  4.1041506    5.0535553    6.4237258    4.9367274  
  21 H       0.0000000    2.1543185 *  2.6961250 *  4.1074733    2.4683604 *
  22 C       2.1543185 *  0.0000000    1.4017801 *  2.4692412 *  2.1501710 *
  23 C       2.6961250 *  1.4017801 *  0.0000000    1.4147814 *  1.0886205 *
  24 C       4.1074733    2.4692412 *  1.4147814 *  0.0000000    2.1595283 *
  25 H       2.4683604 *  2.1501710 *  1.0886205 *  2.1595283 *  0.0000000  
  26 C       4.9063286    2.8639193 *  2.4608913 *  1.4450063 *  3.4444251  
  27 C       5.0663710    3.7709472    2.4813900 *  1.4150585 *  2.7081710 *
  28 C       4.6098619    2.4600943 *  2.8057871 *  2.4608917 *  3.8944065  
  29 C       6.2965148    4.2785552    3.7453454    2.4608265 *  4.6164613  
  30 C       6.4027718    4.9105653    3.7474044    2.4413402 *  4.0909450  
  31 H       4.9482459    4.1076293    2.7095114 *  2.1601149 *  2.4798856 *
  32 H       5.5609347    3.4469916    3.8944061    3.4444328    4.9830246  
  33 H       7.0217473    4.9120047    4.6169541    3.4443050    5.5649686  
  34 C       6.9292392    5.1152101    4.2420534    2.8276206 *  4.8738560  
  35 H       7.1991136    5.8755443    4.6266026    3.4236941    4.7870840  
  36 H       8.0150713    6.1766406    5.3287172    3.9142641    5.9438931  

               26 C         27 C         28 C         29 C         30 C     

   1 C       9.8552692   11.2944407    8.6430998   11.1181615   12.3769332  
   2 C       8.6816097   10.2857632    7.4145026    9.8958985   11.2944403  
   3 C       7.4139796    8.9119942    6.2109253    8.6816139    9.9579948  
   4 C       7.5534848    8.6816097    6.5291630    8.9119969    9.8552690  
   5 C       8.9119976    9.8958994    7.9274972   10.2857694   11.1181622  
   6 C       9.9579943   11.1181602    8.8687747   11.2944427   12.2965268  
   7 C       6.2109254    7.9274945    4.9331114    7.4145073    8.8687765  
   8 C       6.5291645    7.4145032    5.6752129    7.9274982    8.6431006  
   9 C       5.1531946    6.2223324    4.2736439    6.5424341    7.3860556  
  10 C       4.9447493    6.5424325    3.7652308    6.2223389    7.5236686  
  11 C       3.7689206    5.6879424    2.4665582 *  4.9479541    6.4993378  
  12 H       4.1075006    6.2965386    2.6961524 *  5.0664072    6.9292716  
  13 C       2.4692442 *  4.2785576    1.4017812 *  3.7709541    5.1152161  
  14 C       4.2730788    4.9479456    3.7358398    5.6879409    6.1878300  
  15 H       6.4237431    8.3764686    5.0535724    7.4958501    9.1901769  
  16 H      10.8101400   12.3262505    9.5583358   12.0394600   13.3815721  
  17 H       8.8339522   10.6343538    7.4941382    9.9558253   11.5472291  
  18 H       9.2323243    9.9558169    8.3747770   10.6343507   11.2393470  
  19 H      10.9753833   12.0394653    9.9172394   12.3262562   13.2498201  
  20 H       6.9616630    7.4958260    6.2864713    8.3764542    8.8000176  
  21 H       4.9063286    5.0663710    4.6098619    6.2965148    6.4027718  
  22 C       2.8639193 *  3.7709472    2.4600943 *  4.2785552    4.9105653  
  23 C       2.4608913 *  2.4813900 *  2.8057871 *  3.7453454    3.7474044  
  24 C       1.4450063 *  1.4150585 *  2.4608917 *  2.4608265 *  2.4413402 *
  25 H       3.4444251    2.7081710 *  3.8944065    4.6164613    4.0909450  
  26 C       0.0000000    2.4608292 *  1.4147817 *  1.4150605 *  2.8276268 *
  27 C       2.4608292 *  0.0000000    3.7453468    2.8050262 *  1.3886376 *
  28 C       1.4147817 *  3.7453468    0.0000000    2.4813960 *  4.2420598  
  29 C       1.4150605 *  2.8050262 *  2.4813960 *  0.0000000    2.4247143 *
  30 C       2.8276268 *  1.3886376 *  4.2420598    2.4247143 *  0.0000000  
  31 H       3.4443129    1.0878517 *  4.6169620    3.8928778    2.1517838 *
  32 H       2.1595406 *  4.6164752    1.0886200 *  2.7081986 *  4.8738812  
  33 H       2.1601075 *  3.8928766    2.7095066 *  1.0878504 *  3.4125699  
  34 C       2.4413428 *  2.4247097 *  3.7474102    1.3886397 *  1.4085113 *
  35 H       3.9142710    2.1482761 *  5.3287243    3.4063175    1.0866657 *
  36 H       3.4237002    3.4063075    4.6266153    2.1482836 *  2.1655701 *

               31 H         32 H         33 H         34 C         35 H     

   1 C      11.5472293    8.8000166   11.2393451   12.2965268   13.3815719  
   2 C      10.6343535    7.4958252    9.9558150   11.1181600   12.3262499  
   3 C       9.2323294    6.4237242    8.8339465    9.8552710   10.9753793  
   4 C       8.8339519    6.9616614    9.2323227    9.9579942   10.8101393  
   5 C       9.9558260    8.3764531   10.6343496   11.2944434   12.0394603  
   6 C      11.2393548    9.1901549   11.5472205   12.3769333   13.2498141  
   7 C       8.3747823    5.0535534    7.4941331    8.6431029    9.9172380  
   8 C       7.4941381    6.2864714    8.3747773    8.8687760    9.5583359  
   9 C       6.4320717    4.9094414    6.9732857    7.5236662    8.3442885  
  10 C       6.9732927    4.1041502    6.4320690    7.3860597    8.5589747  
  11 C       6.2962700    2.6977396 *  5.0663391    6.1878373    7.5689993  
  12 H       7.0217762    2.4683683 *  4.9482735    6.4028076    8.0151036  
  13 C       4.9120155    2.1501577 *  4.1076256    4.9105709    6.1766443  
  14 C       5.0663403    4.6107897    6.2962604    6.4993316    7.0922290  
  15 H       8.9345145    4.9367230    7.4166282    8.8000408   10.2634219  
  16 H      12.6051167    9.6396911   12.1029222   13.2498145   14.3981300  
  17 H      11.0792090    7.4166127    9.8965177   11.2393548   12.6051164  
  18 H       9.8965193    8.9344923   11.0791964   11.5472222   12.1029235  
  19 H      12.1029395   10.2634018   12.6051105   13.3815765   14.1809809  
  20 H       7.4166128    7.0143845    8.9344928    9.1901563    9.6396913  
  21 H       4.9482459    5.5609347    7.0217473    6.9292392    7.1991136  
  22 C       4.1076293    3.4469916    4.9120047    5.1152101    5.8755443  
  23 C       2.7095114 *  3.8944061    4.6169541    4.2420534    4.6266026  
  24 C       2.1601149 *  3.4444328    3.4443050    2.8276206 *  3.4236941  
  25 H       2.4798856 *  4.9830246    5.5649686    4.8738560    4.7870840  
  26 C       3.4443129    2.1595406 *  2.1601075 *  2.4413428 *  3.9142710  
  27 C       1.0878517 *  4.6164752    3.8928766    2.4247097 *  2.1482761 *
  28 C       4.6169620    1.0886200 *  2.7095066 *  3.7474102    5.3287243  
  29 C       3.8928778    2.7081986 *  1.0878504 *  1.3886397 *  3.4063175  
  30 C       2.1517838 *  4.8738812    3.4125699    1.4085113 *  1.0866657 *
  31 H       0.0000000    5.5649860    4.9807282    3.4125620    2.4776088 *
  32 H       5.5649860    0.0000000    2.4799053 *  4.0909738    5.9439220  
  33 H       4.9807282    2.4799053 *  0.0000000    2.1517935 *  4.3065798  
  34 C       3.4125620    4.0909738    2.1517935 *  0.0000000    2.1655792 *
  35 H       2.4776088 *  5.9439220    4.3065798    2.1655792 *  0.0000000  
  36 H       4.3065625    4.7871243    2.4776329 *  1.0866650 *  2.4911920 *

               36 H     

   1 C      13.2498205  
   2 C      12.0394656  
   3 C      10.8101482  
   4 C      10.9753835  
   5 C      12.3262571  
   6 C      13.3815768  
   7 C       9.5583461  
   8 C       9.9172410  
   9 C       8.5589764  
  10 C       8.3442992  
  11 C       7.0922438  
  12 H       7.1991598  
  13 C       5.8755554  
  14 C       7.5689951  
  15 H       9.6397242  
  16 H      14.1809817  
  17 H      12.1029401  
  18 H      12.6051124  
  19 H      14.3981386  
  20 H      10.2634033  
  21 H       8.0150713  
  22 C       6.1766406  
  23 C       5.3287172  
  24 C       3.9142641  
  25 H       5.9438931  
  26 C       3.4237002  
  27 C       3.4063075  
  28 C       4.6266153  
  29 C       2.1482836 *
  30 C       2.1655701 *
  31 H       4.3065625  
  32 H       4.7871243  
  33 H       2.4776329 *
  34 C       1.0866650 *
  35 H       2.4911920 *
  36 H       0.0000000  

  * ... LESS THAN  3.000


     ATOMIC BASIS SET
     ----------------
 THE CONTRACTED PRIMITIVE FUNCTIONS HAVE BEEN UNNORMALIZED
 THE CONTRACTED BASIS FUNCTIONS ARE NOW NORMALIZED TO UNITY

  SHELL TYPE  PRIMITIVE        EXPONENT          CONTRACTION COEFFICIENT(S)

 C         

      1   S       1          3047.5248800    0.001834737132
      1   S       2           457.3695180    0.014037322813
      1   S       3           103.9486850    0.068842622264
      1   S       4            29.2101553    0.232184443216
      1   S       5             9.2866630    0.467941348435
      1   S       6             3.1639270    0.362311985337

      2   L       7             7.8682723   -0.119332419775    0.068999066591
      2   L       8             1.8812885   -0.160854151696    0.316423960957
      2   L       9             0.5442493    1.143456437840    0.744308290898

      3   L      10             0.1687145    1.000000000000    1.000000000000

      4   D      11             0.8000000    1.000000000000

 C         

      5   S      12          3047.5248800    0.001834737132
      5   S      13           457.3695180    0.014037322813
      5   S      14           103.9486850    0.068842622264
      5   S      15            29.2101553    0.232184443216
      5   S      16             9.2866630    0.467941348435
      5   S      17             3.1639270    0.362311985337

      6   L      18             7.8682723   -0.119332419775    0.068999066591
      6   L      19             1.8812885   -0.160854151696    0.316423960957
      6   L      20             0.5442493    1.143456437840    0.744308290898

      7   L      21             0.1687145    1.000000000000    1.000000000000

      8   D      22             0.8000000    1.000000000000

 C         

      9   S      23          3047.5248800    0.001834737132
      9   S      24           457.3695180    0.014037322813
      9   S      25           103.9486850    0.068842622264
      9   S      26            29.2101553    0.232184443216
      9   S      27             9.2866630    0.467941348435
      9   S      28             3.1639270    0.362311985337

     10   L      29             7.8682723   -0.119332419775    0.068999066591
     10   L      30             1.8812885   -0.160854151696    0.316423960957
     10   L      31             0.5442493    1.143456437840    0.744308290898

     11   L      32             0.1687145    1.000000000000    1.000000000000

     12   D      33             0.8000000    1.000000000000

 C         

     13   S      34          3047.5248800    0.001834737132
     13   S      35           457.3695180    0.014037322813
     13   S      36           103.9486850    0.068842622264
     13   S      37            29.2101553    0.232184443216
     13   S      38             9.2866630    0.467941348435
     13   S      39             3.1639270    0.362311985337

     14   L      40             7.8682723   -0.119332419775    0.068999066591
     14   L      41             1.8812885   -0.160854151696    0.316423960957
     14   L      42             0.5442493    1.143456437840    0.744308290898

     15   L      43             0.1687145    1.000000000000    1.000000000000

     16   D      44             0.8000000    1.000000000000

 C         

     17   S      45          3047.5248800    0.001834737132
     17   S      46           457.3695180    0.014037322813
     17   S      47           103.9486850    0.068842622264
     17   S      48            29.2101553    0.232184443216
     17   S      49             9.2866630    0.467941348435
     17   S      50             3.1639270    0.362311985337

     18   L      51             7.8682723   -0.119332419775    0.068999066591
     18   L      52             1.8812885   -0.160854151696    0.316423960957
     18   L      53             0.5442493    1.143456437840    0.744308290898

     19   L      54             0.1687145    1.000000000000    1.000000000000

     20   D      55             0.8000000    1.000000000000

 C         

     21   S      56          3047.5248800    0.001834737132
     21   S      57           457.3695180    0.014037322813
     21   S      58           103.9486850    0.068842622264
     21   S      59            29.2101553    0.232184443216
     21   S      60             9.2866630    0.467941348435
     21   S      61             3.1639270    0.362311985337

     22   L      62             7.8682723   -0.119332419775    0.068999066591
     22   L      63             1.8812885   -0.160854151696    0.316423960957
     22   L      64             0.5442493    1.143456437840    0.744308290898

     23   L      65             0.1687145    1.000000000000    1.000000000000

     24   D      66             0.8000000    1.000000000000

 C         

     25   S      67          3047.5248800    0.001834737132
     25   S      68           457.3695180    0.014037322813
     25   S      69           103.9486850    0.068842622264
     25   S      70            29.2101553    0.232184443216
     25   S      71             9.2866630    0.467941348435
     25   S      72             3.1639270    0.362311985337

     26   L      73             7.8682723   -0.119332419775    0.068999066591
     26   L      74             1.8812885   -0.160854151696    0.316423960957
     26   L      75             0.5442493    1.143456437840    0.744308290898

     27   L      76             0.1687145    1.000000000000    1.000000000000

     28   D      77             0.8000000    1.000000000000

 C         

     29   S      78          3047.5248800    0.001834737132
     29   S      79           457.3695180    0.014037322813
     29   S      80           103.9486850    0.068842622264
     29   S      81            29.2101553    0.232184443216
     29   S      82             9.2866630    0.467941348435
     29   S      83             3.1639270    0.362311985337

     30   L      84             7.8682723   -0.119332419775    0.068999066591
     30   L      85             1.8812885   -0.160854151696    0.316423960957
     30   L      86             0.5442493    1.143456437840    0.744308290898

     31   L      87             0.1687145    1.000000000000    1.000000000000

     32   D      88             0.8000000    1.000000000000

 C         

     33   S      89          3047.5248800    0.001834737132
     33   S      90           457.3695180    0.014037322813
     33   S      91           103.9486850    0.068842622264
     33   S      92            29.2101553    0.232184443216
     33   S      93             9.2866630    0.467941348435
     33   S      94             3.1639270    0.362311985337

     34   L      95             7.8682723   -0.119332419775    0.068999066591
     34   L      96             1.8812885   -0.160854151696    0.316423960957
     34   L      97             0.5442493    1.143456437840    0.744308290898

     35   L      98             0.1687145    1.000000000000    1.000000000000

     36   D      99             0.8000000    1.000000000000

 C         

     37   S     100          3047.5248800    0.001834737132
     37   S     101           457.3695180    0.014037322813
     37   S     102           103.9486850    0.068842622264
     37   S     103            29.2101553    0.232184443216
     37   S     104             9.2866630    0.467941348435
     37   S     105             3.1639270    0.362311985337

     38   L     106             7.8682723   -0.119332419775    0.068999066591
     38   L     107             1.8812885   -0.160854151696    0.316423960957
     38   L     108             0.5442493    1.143456437840    0.744308290898

     39   L     109             0.1687145    1.000000000000    1.000000000000

     40   D     110             0.8000000    1.000000000000

 C         

     41   S     111          3047.5248800    0.001834737132
     41   S     112           457.3695180    0.014037322813
     41   S     113           103.9486850    0.068842622264
     41   S     114            29.2101553    0.232184443216
     41   S     115             9.2866630    0.467941348435
     41   S     116             3.1639270    0.362311985337

     42   L     117             7.8682723   -0.119332419775    0.068999066591
     42   L     118             1.8812885   -0.160854151696    0.316423960957
     42   L     119             0.5442493    1.143456437840    0.744308290898

     43   L     120             0.1687145    1.000000000000    1.000000000000

     44   D     121             0.8000000    1.000000000000

 H         

     45   S     122            18.7311370    0.033494604338
     45   S     123             2.8253944    0.234726953484
     45   S     124             0.6401217    0.813757326146

     46   S     125             0.1612778    1.000000000000

 C         

     47   S     126          3047.5248800    0.001834737132
     47   S     127           457.3695180    0.014037322813
     47   S     128           103.9486850    0.068842622264
     47   S     129            29.2101553    0.232184443216
     47   S     130             9.2866630    0.467941348435
     47   S     131             3.1639270    0.362311985337

     48   L     132             7.8682723   -0.119332419775    0.068999066591
     48   L     133             1.8812885   -0.160854151696    0.316423960957
     48   L     134             0.5442493    1.143456437840    0.744308290898

     49   L     135             0.1687145    1.000000000000    1.000000000000

     50   D     136             0.8000000    1.000000000000

 C         

     51   S     137          3047.5248800    0.001834737132
     51   S     138           457.3695180    0.014037322813
     51   S     139           103.9486850    0.068842622264
     51   S     140            29.2101553    0.232184443216
     51   S     141             9.2866630    0.467941348435
     51   S     142             3.1639270    0.362311985337

     52   L     143             7.8682723   -0.119332419775    0.068999066591
     52   L     144             1.8812885   -0.160854151696    0.316423960957
     52   L     145             0.5442493    1.143456437840    0.744308290898

     53   L     146             0.1687145    1.000000000000    1.000000000000

     54   D     147             0.8000000    1.000000000000

 H         

     55   S     148            18.7311370    0.033494604338
     55   S     149             2.8253944    0.234726953484
     55   S     150             0.6401217    0.813757326146

     56   S     151             0.1612778    1.000000000000

 H         

     57   S     152            18.7311370    0.033494604338
     57   S     153             2.8253944    0.234726953484
     57   S     154             0.6401217    0.813757326146

     58   S     155             0.1612778    1.000000000000

 H         

     59   S     156            18.7311370    0.033494604338
     59   S     157             2.8253944    0.234726953484
     59   S     158             0.6401217    0.813757326146

     60   S     159             0.1612778    1.000000000000

 H         

     61   S     160            18.7311370    0.033494604338
     61   S     161             2.8253944    0.234726953484
     61   S     162             0.6401217    0.813757326146

     62   S     163             0.1612778    1.000000000000

 H         

     63   S     164            18.7311370    0.033494604338
     63   S     165             2.8253944    0.234726953484
     63   S     166             0.6401217    0.813757326146

     64   S     167             0.1612778    1.000000000000

 H         

     65   S     168            18.7311370    0.033494604338
     65   S     169             2.8253944    0.234726953484
     65   S     170             0.6401217    0.813757326146

     66   S     171             0.1612778    1.000000000000

 H         

     67   S     172            18.7311370    0.033494604338
     67   S     173             2.8253944    0.234726953484
     67   S     174             0.6401217    0.813757326146

     68   S     175             0.1612778    1.000000000000

 C         

     69   S     176          3047.5248800    0.001834737132
     69   S     177           457.3695180    0.014037322813
     69   S     178           103.9486850    0.068842622264
     69   S     179            29.2101553    0.232184443216
     69   S     180             9.2866630    0.467941348435
     69   S     181             3.1639270    0.362311985337

     70   L     182             7.8682723   -0.119332419775    0.068999066591
     70   L     183             1.8812885   -0.160854151696    0.316423960957
     70   L     184             0.5442493    1.143456437840    0.744308290898

     71   L     185             0.1687145    1.000000000000    1.000000000000

     72   D     186             0.8000000    1.000000000000

 C         

     73   S     187          3047.5248800    0.001834737132
     73   S     188           457.3695180    0.014037322813
     73   S     189           103.9486850    0.068842622264
     73   S     190            29.2101553    0.232184443216
     73   S     191             9.2866630    0.467941348435
     73   S     192             3.1639270    0.362311985337

     74   L     193             7.8682723   -0.119332419775    0.068999066591
     74   L     194             1.8812885   -0.160854151696    0.316423960957
     74   L     195             0.5442493    1.143456437840    0.744308290898

     75   L     196             0.1687145    1.000000000000    1.000000000000

     76   D     197             0.8000000    1.000000000000

 C         

     77   S     198          3047.5248800    0.001834737132
     77   S     199           457.3695180    0.014037322813
     77   S     200           103.9486850    0.068842622264
     77   S     201            29.2101553    0.232184443216
     77   S     202             9.2866630    0.467941348435
     77   S     203             3.1639270    0.362311985337

     78   L     204             7.8682723   -0.119332419775    0.068999066591
     78   L     205             1.8812885   -0.160854151696    0.316423960957
     78   L     206             0.5442493    1.143456437840    0.744308290898

     79   L     207             0.1687145    1.000000000000    1.000000000000

     80   D     208             0.8000000    1.000000000000

 H         

     81   S     209            18.7311370    0.033494604338
     81   S     210             2.8253944    0.234726953484
     81   S     211             0.6401217    0.813757326146

     82   S     212             0.1612778    1.000000000000

 C         

     83   S     213          3047.5248800    0.001834737132
     83   S     214           457.3695180    0.014037322813
     83   S     215           103.9486850    0.068842622264
     83   S     216            29.2101553    0.232184443216
     83   S     217             9.2866630    0.467941348435
     83   S     218             3.1639270    0.362311985337

     84   L     219             7.8682723   -0.119332419775    0.068999066591
     84   L     220             1.8812885   -0.160854151696    0.316423960957
     84   L     221             0.5442493    1.143456437840    0.744308290898

     85   L     222             0.1687145    1.000000000000    1.000000000000

     86   D     223             0.8000000    1.000000000000

 C         

     87   S     224          3047.5248800    0.001834737132
     87   S     225           457.3695180    0.014037322813
     87   S     226           103.9486850    0.068842622264
     87   S     227            29.2101553    0.232184443216
     87   S     228             9.2866630    0.467941348435
     87   S     229             3.1639270    0.362311985337

     88   L     230             7.8682723   -0.119332419775    0.068999066591
     88   L     231             1.8812885   -0.160854151696    0.316423960957
     88   L     232             0.5442493    1.143456437840    0.744308290898

     89   L     233             0.1687145    1.000000000000    1.000000000000

     90   D     234             0.8000000    1.000000000000

 C         

     91   S     235          3047.5248800    0.001834737132
     91   S     236           457.3695180    0.014037322813
     91   S     237           103.9486850    0.068842622264
     91   S     238            29.2101553    0.232184443216
     91   S     239             9.2866630    0.467941348435
     91   S     240             3.1639270    0.362311985337

     92   L     241             7.8682723   -0.119332419775    0.068999066591
     92   L     242             1.8812885   -0.160854151696    0.316423960957
     92   L     243             0.5442493    1.143456437840    0.744308290898

     93   L     244             0.1687145    1.000000000000    1.000000000000

     94   D     245             0.8000000    1.000000000000

 C         

     95   S     246          3047.5248800    0.001834737132
     95   S     247           457.3695180    0.014037322813
     95   S     248           103.9486850    0.068842622264
     95   S     249            29.2101553    0.232184443216
     95   S     250             9.2866630    0.467941348435
     95   S     251             3.1639270    0.362311985337

     96   L     252             7.8682723   -0.119332419775    0.068999066591
     96   L     253             1.8812885   -0.160854151696    0.316423960957
     96   L     254             0.5442493    1.143456437840    0.744308290898

     97   L     255             0.1687145    1.000000000000    1.000000000000

     98   D     256             0.8000000    1.000000000000

 C         

     99   S     257          3047.5248800    0.001834737132
     99   S     258           457.3695180    0.014037322813
     99   S     259           103.9486850    0.068842622264
     99   S     260            29.2101553    0.232184443216
     99   S     261             9.2866630    0.467941348435
     99   S     262             3.1639270    0.362311985337

    100   L     263             7.8682723   -0.119332419775    0.068999066591
    100   L     264             1.8812885   -0.160854151696    0.316423960957
    100   L     265             0.5442493    1.143456437840    0.744308290898

    101   L     266             0.1687145    1.000000000000    1.000000000000

    102   D     267             0.8000000    1.000000000000

 H         

    103   S     268            18.7311370    0.033494604338
    103   S     269             2.8253944    0.234726953484
    103   S     270             0.6401217    0.813757326146

    104   S     271             0.1612778    1.000000000000

 H         

    105   S     272            18.7311370    0.033494604338
    105   S     273             2.8253944    0.234726953484
    105   S     274             0.6401217    0.813757326146

    106   S     275             0.1612778    1.000000000000

 H         

    107   S     276            18.7311370    0.033494604338
    107   S     277             2.8253944    0.234726953484
    107   S     278             0.6401217    0.813757326146

    108   S     279             0.1612778    1.000000000000

 C         

    109   S     280          3047.5248800    0.001834737132
    109   S     281           457.3695180    0.014037322813
    109   S     282           103.9486850    0.068842622264
    109   S     283            29.2101553    0.232184443216
    109   S     284             9.2866630    0.467941348435
    109   S     285             3.1639270    0.362311985337

    110   L     286             7.8682723   -0.119332419775    0.068999066591
    110   L     287             1.8812885   -0.160854151696    0.316423960957
    110   L     288             0.5442493    1.143456437840    0.744308290898

    111   L     289             0.1687145    1.000000000000    1.000000000000

    112   D     290             0.8000000    1.000000000000

 H         

    113   S     291            18.7311370    0.033494604338
    113   S     292             2.8253944    0.234726953484
    113   S     293             0.6401217    0.813757326146

    114   S     294             0.1612778    1.000000000000

 H         

    115   S     295            18.7311370    0.033494604338
    115   S     296             2.8253944    0.234726953484
    115   S     297             0.6401217    0.813757326146

    116   S     298             0.1612778    1.000000000000

 TOTAL NUMBER OF BASIS SET SHELLS             =  116
 NUMBER OF CARTESIAN GAUSSIAN BASIS FUNCTIONS =  358
 NUMBER OF ELECTRONS                          =  146
 CHARGE OF MOLECULE                           =    0
 SPIN MULTIPLICITY                            =    1
 NUMBER OF OCCUPIED ORBITALS (ALPHA)          =   73
 NUMBER OF OCCUPIED ORBITALS (BETA )          =   73
 TOTAL NUMBER OF ATOMS                        =   36
 THE NUCLEAR REPULSION ENERGY IS     1489.8718974900

     $CONTRL OPTIONS
     ---------------
 SCFTYP=MCSCF        RUNTYP=NACME        EXETYP=RUN     
 MPLEVL=       0     CITYP =NONE         CCTYP =NONE         VBTYP =NONE    
 DFTTYP=NONE         TDDFT =NONE    
 MULT  =       1     ICHARG=       0     NZVAR =       0     COORD =UNIQUE  
 PP    =NONE         RELWFN=NONE         LOCAL =NONE         NUMGRD=       F
 ISPHER=      -1     NOSYM =       0     MAXIT =      70     UNITS =ANGS    
 PLTORB=       F     MOLPLT=       F     AIMPAC=       F     FRIEND=        
 NPRINT=       7     IREST =       0     GEOM  =INPUT   
 NORMF =       0     NORMP =       0     ITOL  =      20     ICUT  =       9
 INTTYP=BEST         GRDTYP=BEST         QMTTOL= 1.0E-06

     $SYSTEM OPTIONS
     ---------------
  REPLICATED MEMORY=    50000000 WORDS (ON EVERY NODE).
 DISTRIBUTED MEMDDI=         700 MILLION WORDS IN AGGREGATE,
 MEMDDI DISTRIBUTED OVER  20 PROCESSORS IS    35000000 WORDS/PROCESSOR.
 TOTAL MEMORY REQUESTED ON EACH PROCESSOR=    85000000 WORDS.
 TIMLIM=      525600.00 MINUTES, OR     365.0 DAYS.
 PARALL= T  BALTYP=  DLB     KDIAG=    0  COREFL= F
 MXSEQ2=     300 MXSEQ3=     150  mem10=         0  mem22=         0

 Using Gaussians for PCM contribution to MEP, params: 0.10000E+01 0.10000E-07

          ----------------
          PROPERTIES INPUT
          ----------------

     MOMENTS            FIELD           POTENTIAL          DENSITY
 IEMOM =       1   IEFLD =       0   IEPOT =       0   IEDEN =       0
 WHERE =COMASS     WHERE =NUCLEI     WHERE =NUCLEI     WHERE =NUCLEI  
 OUTPUT=BOTH       OUTPUT=BOTH       OUTPUT=BOTH       OUTPUT=BOTH    
 IEMINT=       0   IEFINT=       0                     IEDINT=       0
                                                       MORB  =       0

     -------------------------------
     INTEGRAL TRANSFORMATION OPTIONS
     -------------------------------
     NWORD  =            0
     CUTOFF = 1.0E-09     MPTRAN =       0
     DIRTRF =       F     AOINTS =DUP     
 INTEGRAL TRANSFORMATION OPTION -DIRTRF- FORCED TRUE,
 DUE TO THE CHOICE OF -FULLNR- IN A PARALLEL JOB.

          ----------------------
          MCSCF INPUT PARAMETERS
          ----------------------
 CONVERGER SELECTION: FOCAS = F  SOSCF = F  FULLNR = T  QUD = F  JACOBI = F
 SECULAR EQUATION METHOD CISTEP = ALDET   
 --- GENERAL INPUT OPTIONS:
 MAXIT =     500  MICIT =       5  ACURCY= 1.000E-05
 DAMP  =   0.000  CANONC=       T  ENGTOL= 1.000E-10
 EKT   =       F  NPUNCH=       2  NWORD =         0
 REGENERATE CI AFTER CONVERGENCE = NONE    
 DIABATIZATION AFTER CONVERGENCE =        F
 --- INPUT FOR FULLNR CONVERGER:
 METHOD=DM2       FORS  =       F  DROPC =       T
 LINSER=       F  FCORE =       F  NORB  =     358

          ----------------------
          INTEGRAL INPUT OPTIONS
          ----------------------
 NOPK  =       1 NORDER=       0 SCHWRZ=       T

     ------------------------------------------
     THE POINT GROUP IS CS , NAXIS= 0, ORDER= 2
     ------------------------------------------

     DIMENSIONS OF THE SYMMETRY SUBSPACES ARE
 A'  =  270     A'' =   88

 ..... DONE SETTING UP THE RUN .....
 CPU     0: STEP CPU TIME=     0.22 TOTAL CPU TIME=          0.2 (      0.0 MIN)
 TOTAL WALL CLOCK TIME=          0.2 SECONDS, CPU UTILIZATION IS    92.52%

     ------------------------------
     CPHF RESPONSE SOLUTION OPTIONS
     ------------------------------
     POLAR  =       F     NWORD  =       0
     CPHF   =MO      

          ********************
          1 ELECTRON INTEGRALS
          ********************
 TIME TO DO   DIPOLE INTEGRALS=      0.04
 ...... END OF ONE-ELECTRON INTEGRALS ......
 CPU     0: STEP CPU TIME=     0.05 TOTAL CPU TIME=          0.3 (      0.0 MIN)
 TOTAL WALL CLOCK TIME=          0.3 SECONDS, CPU UTILIZATION IS    90.89%

          -------------
          GUESS OPTIONS
          -------------
          GUESS =MOREAD            NORB  =      77          NORDER=       0
          MIX   =       F          PRTMO =       F          PUNMO =       F
          TOLZ  = 1.0E-08          TOLE  = 1.0E-05
          SYMDEN=       F          PURIFY=       F

 INITIAL GUESS ORBITALS GENERATED BY MOREAD   ROUTINE.

 SYMMETRIES FOR INITIAL GUESS ORBITALS FOLLOW.   BOTH SET(S).
    73 ORBITALS ARE OCCUPIED (   22 CORE ORBITALS).
     1=A        2=A        3=A        4=A        5=A        6=A        7=A   
     8=A        9=A       10=A       11=A       12=A       13=A       14=A   
    15=A       16=A       17=A       18=A       19=A       20=A       21=A   
    22=A       23=A       24=A       25=A       26=A       27=A       28=A   
    29=A       30=A       31=A       32=A       33=A       34=A       35=A   
    36=A       37=A       38=A       39=A       40=A       41=A       42=A   
    43=A       44=A       45=A       46=A       47=A       48=A       49=A   
    50=A       51=A       52=A       53=A       54=A       55=A       56=A   
    57=A       58=A       59=A       60=A       61=A       62=A       63=A   
    64=A       65=A       66=A       67=A       68=A       69=A       70=A   
    71=A       72=A       73=A       74=A       75=A       76=A       77=A   
    78=A       79=A       80=A       81=A       82=A       83=A       84=A   
    85=A       86=A       87=A       88=A       89=A       90=A       91=A   
    92=A       93=A       94=A       95=A       96=A       97=A       98=A   
    99=A      100=A      101=A      102=A      103=A      104=A      105=A   
   106=A      107=A      108=A      109=A      110=A      111=A      112=A   
   113=A      114=A      115=A      116=A      117=A      118=A      119=A   
   120=A      121=A      122=A      123=A      124=A      125=A      126=A   
   127=A      128=A      129=A      130=A      131=A      132=A      133=A   
   134=A      135=A      136=A      137=A      138=A      139=A      140=A   
   141=A      142=A      143=A      144=A      145=A      146=A      147=A   
   148=A      149=A      150=A      151=A      152=A      153=A      154=A   
   155=A      156=A      157=A      158=A      159=A      160=A      161=A   
   162=A      163=A      164=A      165=A      166=A      167=A      168=A   
   169=A      170=A      171=A      172=A      173=A      174=A      175=A   
   176=A      177=A      178=A      179=A      180=A      181=A      182=A   
   183=A      184=A      185=A      186=A      187=A      188=A      189=A   
   190=A      191=A      192=A      193=A      194=A      195=A      196=A   
   197=A      198=A      199=A      200=A      201=A      202=A      203=A   
   204=A      205=A      206=A      207=A      208=A      209=A      210=A   
   211=A      212=A      213=A      214=A      215=A      216=A      217=A   
   218=A      219=A      220=A      221=A      222=A      223=A      224=A   
   225=A      226=A      227=A      228=A      229=A      230=A      231=A   
   232=A      233=A      234=A      235=A      236=A      237=A      238=A   
   239=A      240=A      241=A      242=A      243=A      244=A      245=A   
   246=A      247=A      248=A      249=A      250=A      251=A      252=A   
   253=A      254=A      255=A      256=A      257=A      258=A      259=A   
   260=A      261=A      262=A      263=A      264=A      265=A      266=A   
   267=A      268=A      269=A      270=A      271=A      272=A      273=A   
   274=A      275=A      276=A      277=A      278=A      279=A      280=A   
   281=A      282=A      283=A      284=A      285=A      286=A      287=A   
   288=A      289=A      290=A      291=A      292=A      293=A      294=A   
   295=A      296=A      297=A      298=A      299=A      300=A      301=A   
   302=A      303=A      304=A      305=A      306=A      307=A      308=A   
   309=A      310=A      311=A      312=A      313=A      314=A      315=A   
   316=A      317=A      318=A      319=A      320=A      321=A      322=A   
   323=A      324=A      325=A      326=A      327=A      328=A      329=A   
   330=A      331=A      332=A      333=A      334=A      335=A      336=A   
   337=A      338=A      339=A      340=A      341=A      342=A      343=A   
   344=A      345=A      346=A      347=A      348=A      349=A      350=A   
   351=A      352=A      353=A      354=A      355=A      356=A      357=A   
   358=A   
 ...... END OF INITIAL ORBITAL SELECTION ......
 CPU     0: STEP CPU TIME=     0.16 TOTAL CPU TIME=          0.4 (      0.0 MIN)
 TOTAL WALL CLOCK TIME=          0.5 SECONDS, CPU UTILIZATION IS    80.90%

                    ----------------------
                    AO INTEGRAL TECHNOLOGY
                    ----------------------
     S,P,L SHELL ROTATED AXIS INTEGRALS, REPROGRAMMED BY
        KAZUYA ISHIMURA (IMS) AND JOSE SIERRA (SYNSTAR).
     S,P,D,L SHELL ROTATED AXIS INTEGRALS PROGRAMMED BY
        KAZUYA ISHIMURA (INSTITUTE FOR MOLECULAR SCIENCE).
     S,P,D,F,G SHELL TO TOTAL QUARTET ANGULAR MOMENTUM SUM 5,
        ERIC PROGRAM BY GRAHAM FLETCHER (ELORET AND NASA ADVANCED
        SUPERCOMPUTING DIVISION, AMES RESEARCH CENTER).
     S,P,D,F,G,L SHELL GENERAL RYS QUADRATURE PROGRAMMED BY
        MICHEL DUPUIS (PACIFIC NORTHWEST NATIONAL LABORATORY).
 DIRECT TRANSFORMATION SKIPS AO INTEGRAL STORAGE ON DISK.
  ...... END OF TWO-ELECTRON INTEGRALS .....
 STEP CPU TIME =     0.01 TOTAL CPU TIME =          0.4 (      0.0 MIN)
 TOTAL WALL CLOCK TIME=          0.5 SECONDS, CPU UTILIZATION IS    81.32%

          -----------------
          MCSCF CALCULATION
          -----------------

 ----- NUCLEAR ENERGY ----- =      1489.8718974900

     --------------------------------------------------
          AMES LABORATORY DETERMINANTAL FULL CI
     PROGRAM WRITTEN BY JOE IVANIC AND KLAUS RUEDENBERG
     --------------------------------------------------

 RUNTYP=NACME    INVOLVING AN ANALYTIC NUCLEAR GRADIENT
 HAS BEEN REQUESTED FOR A RUN AVERAGING OVER   2 STATES.
 THIS REQUIRES SOLUTION OF THE MULTI-REFERENCE RESPONSE EQUATIONS,
 REQUIRING MORE COMPUTER TIME THAN SINGLE STATE GRADIENTS.
 PROVIDING $CPMCHF INPUT MAY HELP RESPONSE SOLVING.

 THE POINT GROUP                  =   C1      
 THE STATE SYMMETRY               =   A       
 NUMBER OF CORE ORBITALS          =   69
 NUMBER OF ACTIVE ORBITALS        =    8
 NUMBER OF ALPHA ELECTRONS        =   73 (   4 ACTIVE)
 NUMBER OF BETA ELECTRONS         =   73 (   4 ACTIVE)
 NUMBER OF OCCUPIED ORBITALS      =   77
 NUMBER OF CI STATES REQUESTED    =    4
 NUMBER OF CI STARTING VECTORS    =    4
 MAX. NO. OF CI EXPANSION VECTORS =   10
 SIZE OF INITIAL CI GUESS MATRIX  =  300
 MAX. NO. OF CI ITERS/STATE       =  100
 CI DIAGONALIZATION CRITERION     = 1.00E-06
 PURE SPIN STATE AVERAGED 1E- AND 2E- DENSITY MATRIX OPTION=.T.
 STATE=   1 DM2 WEIGHT=   0.50000     STATE=   2 DM2 WEIGHT=   0.50000
 STATE-AVERAGED MCSCF USING IROOT=  0 AS ITS STATE-SPECIFIC E

 CORRELATION ENERGY ANALYSIS      =    F

 SYMMETRIES FOR THE  69 CORE,   8 ACTIVE ARE

     CORE= A     A     A     A     A     A     A     A     A     A   
           A     A     A     A     A     A     A     A     A     A   
           A     A     A     A     A     A     A     A     A     A   
           A     A     A     A     A     A     A     A     A     A   
           A     A     A     A     A     A     A     A     A     A   
           A     A     A     A     A     A     A     A     A     A   
           A     A     A     A     A     A     A     A     A   

   ACTIVE= A     A     A     A     A     A     A     A   

 EVALUATING EXCHANGE INTEGRALS FOR DIRECT INTEGRAL TRANSFORMATION
 SCHWARZ INEQUALITY OVERHEAD:     47376 INTEGRALS, T=        0.00

     --------------------------------------------
     PARTIAL TWO ELECTRON INTEGRAL TRANSFORMATION
     --------------------------------------------

 NUMBER OF CORE MOLECULAR ORBITALS     =   69
 NUMBER OF OCCUPIED MOLECULAR ORBITALS =   77
 TOTAL NUMBER OF MOLECULAR ORBITALS    =  358
 TOTAL NUMBER OF ATOMIC ORBITALS       =  358
 THRESHOLD FOR KEEPING TRANSFORMED 2E- INTEGRALS = 1.000E-09

 -------------------------------     ------------------------------
 DISTRIBUTED DATA TRANSFORMATION     PROGRAM WRITTEN BY G. FLETCHER
 -------------------------------     ------------------------------

 THE DISTRIBUTED MEMORY REQUIRED FOR THIS STEP IS MEMDDI=       652 MWORDS
 CREATING DISTRIBUTED STORAGE FOR [VIR OCC|VIR OCC] INTEGRALS
 DDI: Creating Array [0] - 128164 x 3003 = 384876492 words.
 CREATING DISTRIBUTED STORAGE FOR [VIR OCC|OCC OCC] INTEGRALS
 DDI: Creating Array [1] - 281 x 231231 = 64975911 words.
 CREATING DISTRIBUTED STORAGE FOR [OCC OCC|OCC OCC] INTEGRALS
 DDI: Creating Array [2] - 3003 x 3003 = 9018009 words.
 CREATING DISTRIBUTED STORAGE FOR [VIR VIR|OCC OCC] INTEGRALS
 DDI: Creating Array [3] - 64261 x 3003 = 192975783 words.
 FOR   20 PROCESSORS, THE REPLICATED MEMORY NEEDED IS     2802794 WORDS.
 SCHWARZ INEQUALITY OVERHEAD:     47376 INTEGRALS, T=        0.00

      DIRECT 4-INDEX TRANSFORMATION 
      SCHWARZ INEQUALITY TEST SKIPPED   34868356 INTEGRAL BLOCKS
 ----- FROZEN CORE ENERGY =     -2324.8069209069
 ... END OF INTEGRAL TRANSFORMATION ...
 CPU     0: STEP CPU TIME=    51.20 TOTAL CPU TIME=         51.6 (      0.9 MIN)
 TOTAL WALL CLOCK TIME=         57.1 SECONDS, CPU UTILIZATION IS    90.41%

     --------------------------------------------------
          AMES LABORATORY DETERMINANTAL FULL CI
     PROGRAM WRITTEN BY JOE IVANIC AND KLAUS RUEDENBERG
     --------------------------------------------------

 THE NUMBER OF DETERMINANTS HAVING SPACE SYMMETRY A  
 IN POINT GROUP C1   WITH SZ=  0.0 IS           4900
 WHICH INCLUDES           1764 CSFS WITH S=  0.0
 WHICH INCLUDES           2352 CSFS WITH S=  1.0
 WHICH INCLUDES            720 CSFS WITH S=  2.0
 WHICH INCLUDES             63 CSFS WITH S=  3.0
 WHICH INCLUDES              1 CSFS WITH S=  4.0
 THE DETERMINANT FULL CI REQUIRES          380414 WORDS
 INITIAL CI VECTOR GUESS TIME  :          0.0
 INITIAL FULL CI ITERATION TIME:          0.0

 ITERATION      ENERGY           GRADIENT
     0     -841.2878445287     0.08544525
     0     -841.2370884907     0.10133511
     0     -841.1757187837     0.09682490
     0     -841.1667697770     0.09390498

     1     -841.2984215656     0.02344039
     1     -841.2536229462     0.03138148
     1     -841.1914233607     0.02541078
     1     -841.1800608028     0.03042860

     2     -841.2991415599     0.01000341
     2     -841.2548751508     0.01398994
     2     -841.1923295206     0.00904151
     2     -841.1811111237     0.01331586

     3     -841.2992442766     0.00465980
     3     -841.2551138097     0.00678612
     3     -841.1924421317     0.00373655
     3     -841.1812450176     0.00899396

     4     -841.2992712252     0.00297948
     4     -841.2551771169     0.00386440
     4     -841.1924614570     0.00183866
     4     -841.1813180576     0.00696163

     5     -841.2992804865     0.00171302
     5     -841.2551963232     0.00204990
     5     -841.1924658645     0.00090745
     5     -841.1813556410     0.00505848

     6     -841.2992841654     0.00116812
     6     -841.2552027355     0.00125956
     6     -841.1924671336     0.00053584
     6     -841.1813784950     0.00403753

     7     -841.2992857164     0.00072186
     7     -841.2552050116     0.00071102
     7     -841.1924675850     0.00031458
     7     -841.1813915313     0.00299381

     8     -841.2992863968     0.00050565
     8     -841.2552058690     0.00046162
     8     -841.1924677575     0.00020046
     8     -841.1813995186     0.00239841

     9     -841.2992867015     0.00032218
     9     -841.2552062046     0.00027252
     9     -841.1924678256     0.00012204
     9     -841.1814042255     0.00180254

    10     -841.2992868401     0.00022861
    10     -841.2552063406     0.00018305
    10     -841.1924678532     0.00008030
    10     -841.1814071211     0.00144645

    11     -841.2992869037     0.00014756
    11     -841.2552063968     0.00011114
    11     -841.1924678646     0.00004973
    11     -841.1814088640     0.00109921

    12     -841.2992869330     0.00010530
    12     -841.2552064205     0.00007603
    12     -841.1924678693     0.00003339
    12     -841.1814099423     0.00088298

    13     -841.2992869467     0.00006835
    13     -841.2552064306     0.00004691
    13     -841.1924678713     0.00002085
    13     -841.1814106016     0.00067722

    14     -841.2992869530     0.00004890
    14     -841.2552064349     0.00003238
    14     -841.1924678722     0.00001418
    14     -841.1814110119     0.00054438

    15     -841.2992869559     0.00003183
    15     -841.2552064368     0.00002017
    15     -841.1924678726     0.00000888
    15     -841.1814112658     0.00042075

    16     -841.2992869573     0.00002279
    16     -841.2552064376     0.00001398
    16     -841.1924678727     0.00000610
    16     -841.1814114247     0.00033839

    17     -841.2992869579     0.00001486
    17     -841.2552064379     0.00000875
    17     -841.1924678728     0.00000382
    17     -841.1814115240     0.00026323

    18     -841.2992869582     0.00001065
    18     -841.2552064381     0.00000607
    18     -841.1924678728     0.00000265
    18     -841.1814115864     0.00021180

    19     -841.2992869584     0.00000695
    19     -841.2552064382     0.00000381
    19     -841.1924678728     0.00000166
    19     -841.1814116257     0.00016566

    20     -841.2992869584     0.00000498
    20     -841.2552064382     0.00000265
    20     -841.1924678728     0.00000116
    20     -841.1814116506     0.00013335

    21     -841.2992869585     0.00000325
    21     -841.2552064382     0.00000167
    21     -841.1924678728     0.00000072
    21     -841.1814116663     0.00010479


 CONVERGED STATE    3 ENERGY=     -841.1924678728 IN   21 ITERS

     0     -841.2992869585     0.00000325
     0     -841.2552064382     0.00000167
     0     -841.1814116663     0.00010479

     1     -841.2992869585     0.00000233
     1     -841.2552064382     0.00000116
     1     -841.1814116763     0.00008438

     2     -841.2992869585     0.00000003
     2     -841.2552064382     0.00000002
     2     -841.1814116938     0.00000878


 CONVERGED STATE    1 ENERGY=     -841.2992869585 IN   24 ITERS


 CONVERGED STATE    2 ENERGY=     -841.2552064382 IN   24 ITERS

     0     -841.1814116938     0.00000878
     1     -841.1814116940     0.00000170
     2     -841.1814116940     0.00000121
     3     -841.1814116940     0.00000036

 CONVERGED STATE    4 ENERGY=     -841.1814116940 IN   28 ITERS

 ALL STATES CONVERGED.

 CI EIGENVECTORS WILL BE LABELED IN GROUP=C1      
 PRINTING CI COEFFICIENTS LARGER THAN 5.000E-02

 STATE   1  ENERGY=      -841.2992869585  S=  0.00  SZ=  0.00  SPACE SYM=A   

  ALPHA   |  BETA    | CI COEFFICIENT
----------|----------|---------------
 11110000 | 11110000 |   0.9289299932
 11101000 | 11101000 |  -0.2289300518
 11100100 | 11011000 |   0.0794061797
 11011000 | 11100100 |   0.0794061797
 11110000 | 10101010 |  -0.0614937192
 10101010 | 11110000 |  -0.0614937192
 11010100 | 11010100 |  -0.0605670289
 11101000 | 11010100 |   0.0590950787
 11010100 | 11101000 |   0.0590950787
 11100001 | 01111000 |   0.0520024633
 01111000 | 11100001 |   0.0520024633
 11100010 | 10111000 |   0.0502101314
 10111000 | 11100010 |   0.0502101314

 STATE   2  ENERGY=      -841.2552064382  S=  1.00  SZ=  0.00  SPACE SYM=A   

  ALPHA   |  BETA    | CI COEFFICIENT
----------|----------|---------------
 11110000 | 11101000 |   0.6597809860
 11101000 | 11110000 |  -0.6597809860
 11010100 | 11110000 |   0.1411391710
 11110000 | 11010100 |  -0.1411391710
 01110001 | 11110000 |   0.0792580904
 11110000 | 01110001 |  -0.0792580904
 11101000 | 11001100 |   0.0630607279
 11001100 | 11101000 |  -0.0630607279

 STATE   3  ENERGY=      -841.1924678728  S=  1.00  SZ=  0.00  SPACE SYM=A   

  ALPHA   |  BETA    | CI COEFFICIENT
----------|----------|---------------
 11110000 | 11011000 |   0.4938842528
 11011000 | 11110000 |  -0.4938842528
 11110000 | 11100100 |  -0.4427076325
 11100100 | 11110000 |   0.4427076325
 11110000 | 01110100 |   0.1196681456
 01110100 | 11110000 |  -0.1196681456
 11110000 | 11010001 |   0.1055927458
 11010001 | 11110000 |  -0.1055927458
 11011000 | 11001100 |  -0.0591474399
 11001100 | 11011000 |   0.0591474399
 11100100 | 11001100 |   0.0571694533
 11001100 | 11100100 |  -0.0571694533

 STATE   4  ENERGY=      -841.1814116940  S=  0.00  SZ=  0.00  SPACE SYM=A   

  ALPHA   |  BETA    | CI COEFFICIENT
----------|----------|---------------
 11101000 | 11110000 |   0.6679622977
 11110000 | 11101000 |   0.6679622977
 10110010 | 11110000 |  -0.0884887900
 11110000 | 10110010 |  -0.0884887900
 11001010 | 11110000 |   0.0652617219
 11110000 | 11001010 |   0.0652617219
 10101100 | 11110000 |  -0.0645883944
 11110000 | 10101100 |  -0.0645883944
 11101000 | 10101010 |  -0.0584652000
 10101010 | 11101000 |  -0.0584652000
 11100100 | 10111000 |   0.0572446678
 10111000 | 11100100 |   0.0572446678
 11011000 | 10111000 |   0.0552499524
 10111000 | 11011000 |   0.0552499524
 11011000 | 11100010 |  -0.0550025423
 11100010 | 11011000 |  -0.0550025423
 ..... DONE WITH DETERMINANT CI COMPUTATION .....
 CPU     0: STEP CPU TIME=     0.20 TOTAL CPU TIME=         51.8 (      0.9 MIN)
 TOTAL WALL CLOCK TIME=         57.4 SECONDS, CPU UTILIZATION IS    90.23%

     --------------------------------------------------
      ONE AND TWO PARTICLE DENSITY MATRIX COMPUTATION
     PROGRAM WRITTEN BY JOE IVANIC AND KLAUS RUEDENBERG
     --------------------------------------------------

      46794 WORDS WILL BE USED TO FORM THE DENSITIES
 THE DENSITIES ARE STATE AVERAGED OVER   2 ROOT(S)
 STATE=   1   ENERGY=     -841.2992869585   WEIGHT= 0.50000   S=  0.00
 STATE=   4   ENERGY=     -841.1814116940   WEIGHT= 0.50000   S=  0.00
 SIEVING THE A    SYMMETRY NONZERO DENSITY ELEMENTS IN GROUP C1      
        656 NONZERO DM2 ELEMENTS WRITTEN IN       1 RECORDS TO FILE 15
 ..... DONE WITH 1 AND 2 PARTICLE DENSITY MATRIX .....
 CPU     0: STEP CPU TIME=     0.00 TOTAL CPU TIME=         51.8 (      0.9 MIN)
 TOTAL WALL CLOCK TIME=         57.4 SECONDS, CPU UTILIZATION IS    90.23%

     --------------------------------     -----------------------------
     MCHF NEWTON-RAPHSON OPTIMIZATION     CODE WRITTEN BY MICHEL DUPUIS
     --------------------------------     -----------------------------
     PARALLEL VERSION WRITTEN BY G. FLETCHER (ELORET)
     NASA ADVANCED SUPERCOMPUTING DIVISION, AMES RESEARCH CENTER

 NUMBER OF INDEPENDENT ORBITAL ROTATION PARAMETERS = 12535
 ..... DONE SOLVING NEWTON-RAPHSON EQUATIONS .....
 CPU     0: STEP CPU TIME=    10.13 TOTAL CPU TIME=         62.0 (      1.0 MIN)
 TOTAL WALL CLOCK TIME=         77.7 SECONDS, CPU UTILIZATION IS    79.73%
 ..... DONE WITH NTN-RPH ORBITAL ROTATIONS ..... 
 CPU     0: STEP CPU TIME=     0.26 TOTAL CPU TIME=         62.2 (      1.0 MIN)
 TOTAL WALL CLOCK TIME=         78.0 SECONDS, CPU UTILIZATION IS    79.80%
 MAXIMUM MEMORY USED BY NTN-RPH CODE WAS   2562670 WORDS.

 ITER     TOTAL ENERGY      DEL(E)  LAGRANGIAN ASYMMETRY   SQCDF  MICIT   DAMP
   1     -841.240349326 -0.240349326  0.012499   77   69 2.943E-01  1   0.0000
   2     -841.248010695 -0.007661369  0.002601   70   67 5.000E-01  1   0.0000
   3     -841.257024458 -0.009013763  0.004174   70   67 3.343E-01  1   0.0000
   4     -841.263822451 -0.006797993  0.002334   75   66 3.530E-02  1   0.0045
 DETERMINANT FULL CI FAILED TO CONVERGE   4 OF THE ROOTS.
   5     -841.264952355 -0.001129903  0.001282   74   57 3.046E-03  1   0.0000
 DETERMINANT FULL CI FAILED TO CONVERGE   4 OF THE ROOTS.
   6     -841.266195195 -0.001242840  0.014945   74   69 3.441E-02  1   0.0000
   7     -841.273158486 -0.006963291  0.004347   73   69 8.896E-03  1   0.2000
   8     -841.273979719 -0.000821233  0.001998   73   69 6.196E-03  1   0.0125
   9     -841.274298894 -0.000319175  0.000820  358   74 1.006E-02  1   0.0000
  10     -841.274617978 -0.000319084  0.000827  282   77 1.444E-02  1   0.0000
  11     -841.275069049 -0.000451071  0.001097  282   77 1.372E-02  1   0.0000
  12     -841.275528291 -0.000459242  0.001071  282   77 8.097E-03  1   0.0000
  13     -841.275822711 -0.000294420  0.000795  282   77 3.256E-03  1   0.0000
  14     -841.275949603 -0.000126892  0.000495  282   77 1.060E-03  1   0.0000
  15     -841.275992577 -0.000042974  0.000280  282   77 3.054E-04  1   0.0000
  16     -841.276005394 -0.000012817  0.000152  282   77 8.546E-05  1   0.0000
  17     -841.276009092 -0.000003697  0.000082  282   77 2.361E-05  1   0.0000
[...]
 11110000 | 11010001 |  -0.0809360135
 11010001 | 11110000 |   0.0809360135
 11110000 | 01110100 |   0.0777378942
 01110100 | 11110000 |  -0.0777378942
 11101000 | 11100100 |   0.0773758682
 11100100 | 11101000 |  -0.0773758682
 11101000 | 11100010 |   0.0706201498
 11100010 | 11101000 |  -0.0706201498

 STATE   4  ENERGY=      -841.2193190862  S=  0.00  SZ=  0.00  SPACE SYM=A   

  ALPHA   |  BETA    | CI COEFFICIENT
----------|----------|---------------
 11110000 | 11101000 |   0.4587075497
 11101000 | 11110000 |   0.4587075497
 11110000 | 11110000 |  -0.4292084653
 11101000 | 11101000 |  -0.3885351272
 11011000 | 11011000 |   0.1935673707
 11100100 | 11100100 |   0.1769729402
 11001100 | 11110000 |   0.1002483415
 11110000 | 11001100 |   0.1002483415
 11100100 | 11011000 |  -0.0941456967
 11011000 | 11100100 |  -0.0941456967
 01111000 | 01111000 |   0.0887004637
 10111000 | 11011000 |   0.0692305236
 11011000 | 10111000 |   0.0692305236
 11010100 | 11110000 |  -0.0636189747
 11110000 | 11010100 |  -0.0636189747
 11010100 | 11001100 |  -0.0536731862
 11001100 | 11010100 |  -0.0536731862
 01111000 | 11100001 |   0.0526307303
 11100001 | 01111000 |   0.0526307303
 ..... DONE WITH DETERMINANT CI COMPUTATION .....
 CPU     0: STEP CPU TIME=     0.19 TOTAL CPU TIME=       1782.3 (     29.7 MIN)
 TOTAL WALL CLOCK TIME=       2147.4 SECONDS, CPU UTILIZATION IS    83.00%

     --------------------------------------------------
      ONE AND TWO PARTICLE DENSITY MATRIX COMPUTATION
     PROGRAM WRITTEN BY JOE IVANIC AND KLAUS RUEDENBERG
     --------------------------------------------------

      46794 WORDS WILL BE USED TO FORM THE DENSITIES
 THE DENSITIES ARE STATE AVERAGED OVER   2 ROOT(S)
 STATE=   1   ENERGY=     -841.3327021010   WEIGHT= 0.50000   S=  0.00
 STATE=   4   ENERGY=     -841.2193190862   WEIGHT= 0.50000   S=  0.00
 SIEVING THE A    SYMMETRY NONZERO DENSITY ELEMENTS IN GROUP C1      
        663 NONZERO DM2 ELEMENTS WRITTEN IN       1 RECORDS TO FILE 15
 ..... DONE WITH 1 AND 2 PARTICLE DENSITY MATRIX .....
 CPU     0: STEP CPU TIME=     0.00 TOTAL CPU TIME=       1782.3 (     29.7 MIN)
 TOTAL WALL CLOCK TIME=       2147.4 SECONDS, CPU UTILIZATION IS    83.00%
 FREEING DISTRIBUTED STORAGE FOR [OCC OCC|OCC OCC] INTEGRALS
 .....DONE WITH MCSCF ITERATIONS.....
 CPU     0: STEP CPU TIME=     0.00 TOTAL CPU TIME=       1782.3 (     29.7 MIN)
 TOTAL WALL CLOCK TIME=       2147.4 SECONDS, CPU UTILIZATION IS    83.00%

     ----------------------------------------------------------------
     PROPERTY VALUES FOR THE MCSCF SELF-CONSISTENT FIELD WAVEFUNCTION
     ----------------------------------------------------------------

 THIS MCSCF AVERAGED   2 ROOTS OF DIFFERENT ENERGY.
 SINCE NO STATE-SPECIFIC DENSITY MATRIX IS AVAILABLE,
 PROPERTIES WILL NOT BE COMPUTED.


     --------------------------------------------
     PARTIAL TWO ELECTRON INTEGRAL TRANSFORMATION
     --------------------------------------------

 NUMBER OF CORE MOLECULAR ORBITALS     =    0
 NUMBER OF OCCUPIED MOLECULAR ORBITALS =   77
 TOTAL NUMBER OF MOLECULAR ORBITALS    =  358
 TOTAL NUMBER OF ATOMIC ORBITALS       =  358
 THRESHOLD FOR KEEPING TRANSFORMED 2E- INTEGRALS = 1.000E-09

 -------------------------------     ------------------------------
 DISTRIBUTED DATA TRANSFORMATION     PROGRAM WRITTEN BY G. FLETCHER
 -------------------------------     ------------------------------

 THE DISTRIBUTED MEMORY REQUIRED FOR THIS STEP IS MEMDDI=       652 MWORDS
 CREATING DISTRIBUTED STORAGE FOR [VIR OCC|VIR OCC] INTEGRALS
 DDI: Creating Array [0] - 128164 x 3003 = 384876492 words.
 CREATING DISTRIBUTED STORAGE FOR [VIR OCC|OCC OCC] INTEGRALS
 DDI: Creating Array [1] - 281 x 231231 = 64975911 words.
 CREATING DISTRIBUTED STORAGE FOR [OCC OCC|OCC OCC] INTEGRALS
 DDI: Creating Array [2] - 3003 x 3003 = 9018009 words.
 CREATING DISTRIBUTED STORAGE FOR [VIR VIR|OCC OCC] INTEGRALS
 DDI: Creating Array [3] - 64261 x 3003 = 192975783 words.
 FOR   20 PROCESSORS, THE REPLICATED MEMORY NEEDED IS     2802794 WORDS.
 SCHWARZ INEQUALITY OVERHEAD:     47376 INTEGRALS, T=        0.00

      DIRECT 4-INDEX TRANSFORMATION 
      SCHWARZ INEQUALITY TEST SKIPPED   34868356 INTEGRAL BLOCKS
 ... END OF INTEGRAL TRANSFORMATION ...
 CPU     0: STEP CPU TIME=    76.30 TOTAL CPU TIME=       1858.6 (     31.0 MIN)
 TOTAL WALL CLOCK TIME=       2229.6 SECONDS, CPU UTILIZATION IS    83.36%

     ---------------------------------------------
     1ST AND 2ND INTEGRAL DERIVATIVE CONTRIBUTIONS
     ---------------------------------------------
 ...... END OF 1-ELECTRON GRAD+HESS+FOCKDER ......
 CPU     0: STEP CPU TIME=     0.52 TOTAL CPU TIME=       1859.1 (     31.0 MIN)
 TOTAL WALL CLOCK TIME=       2230.3 SECONDS, CPU UTILIZATION IS    83.36%

     ----------------------------------------------
     TWO ELECTRON INTEGRAL DERIVATIVE CONTRIBUTIONS
     ----------------------------------------------

   30744248 WORDS REQUIRED,  49999999 WORDS AVAILABLE
 THE COARSE/FINE SCHWARZ SCREENINGS SKIPPED          0/  17098335 BLOCKS.
 THE NUMBER OF DERIVATIVE INTEGRAL BLOCKS COMPUTED WAS   5928662
 CPU     0: STEP CPU TIME=   707.36 TOTAL CPU TIME=       2566.5 (     42.8 MIN)
 TOTAL WALL CLOCK TIME=       2941.8 SECONDS, CPU UTILIZATION IS    87.24%
 ...... END OF 2-ELECTRON GRAD+HESS+LAGDER ......
 CPU     0: STEP CPU TIME=     0.00 TOTAL CPU TIME=       2566.5 (     42.8 MIN)
 TOTAL WALL CLOCK TIME=       2941.8 SECONDS, CPU UTILIZATION IS    87.24%
 COMPUTING NACME FOR STATE WITH E=     -841.3327021010 S=  0.0
 COMPUTING NACME FOR STATE WITH E=     -841.2193190862 S=  0.0

     -------------------------------------------------
     COUPLED-PERTURBED MULTICONFIGURATION HARTREE-FOCK
     Z-VECTOR VERSION
     -------------------------------------------------

 SETTING UP RIGHT-HAND SIDE OF CPMCHF EQUATIONS.
 # OF WORDS REQUIRED  =   36948853
 # OF WORDS AVAILABLE =   49999999
 NOTE THAT THE CP-MCHF DISTRIBUTED MEMORY REQUIREMENTS ARE JUST THE
 MEMORY NEEDED TO STORE TRANSFORMED INTEGRAL CLASSES (ALLOCATED ABOVE).

  --- DIPOLE MOMENTS (DEBYE) ---
  1,  1 :  DIPOLE   -0.000136    0.450434    0.000000    0.450434
  1,  2 : TDIPOLE   -0.000802    2.613338    0.000000    2.613338
  2,  2 :  DIPOLE    0.001133   -3.854855    0.000000    3.854855

  --- OSCILLATOR STRENGTHS  ---

             1           2

    1    0.0000000
    2    0.0799055   0.0000000


 CALCULATING MCSCF ELECTRONIC HESSIAN ON THE FLY.
 # OF ORBITAL ROTATIONS   =      22189
 LENGTH OF DET. EXPANSION =       4900

 SOLVING CPMCHF EQUATIONS - ESSENTIAL MEMORY.
 # OF WORDS REQUIRED  =   41182518
 # OF WORDS AVAILABLE =   49999999
 DDI: Creating Array [4] - 1 x 20 = 20 words.
 DDI: Creating Array [5] - 1 x 20 = 20 words.
 DDI: Creating Array [6] - 1 x 20 = 20 words.
 DDI: Creating Array [7] - 1 x 20 = 20 words.

 MASTER NODE HAS FINISHED WITH (OO|OO) INTEGRALS, T=    1.3
 MASTER NODE HAS FINISHED WITH (VO|OO) INTEGRALS, T=   49.7
 MASTER NODE HAS FINISHED WITH (VV|OO) INTEGRALS, T=   15.3
 MASTER NODE HAS FINISHED WITH (VO|VO) INTEGRALS, T=    4.5

 FINISHED SETTING UP RIGHT-HAND SIDE.
 CPU     0: STEP CPU TIME=   260.12 TOTAL CPU TIME=       2826.6 (     47.1 MIN)
 TOTAL WALL CLOCK TIME=       3209.1 SECONDS, CPU UTILIZATION IS    88.08%

 SOLVING FOR    3 NUCLEAR RESPONSES AND 0 ELECTRIC FIELD RESPONSES

 SOLVING CPMCHF EQUATIONS - EXTRA SOLVER MEMORY.
 # OF WORDS REQUIRED  =    1179734
 # OF WORDS AVAILABLE =    8817481

 PRECONDITIONED GCRO SOLVER   CONV. TOLERANCE=1.00E-07
 ITER   RESPONSE ERROR    IMPROVED     ORB-ORB     CI-ORB
   1      7.61354E-02         3            8.7        1.8
   2      2.42729E-05         3            9.5        0.2
   3      2.34071E-07         1            7.0        0.2
   4      9.81339E-08         0            8.9        0.1
 THE CPMCHF HAS CONVERGED AFTER   4 ITERATIONS.

 STATE-SPECIFIC GRADIENT OF STATE   1 (OVERALL STATE   1)
 ENERGY=     -841.3327021010 SPIN=  0.00 WEIGHT= 0.500000

 UNITS ARE HARTREE/BOHR    E'X               E'Y               E'Z 
    1 C               -0.019689794       0.021494721       0.000000000
    2 C                0.025767292      -0.003548562       0.000000000
    3 C               -0.007674009      -0.020518048      -0.000000000
    4 C               -0.011618165       0.019687735      -0.000000000
    5 C                0.027557983       0.003489653      -0.000000000
    6 C               -0.019556141      -0.022349870      -0.000000000
    7 C                0.011061883       0.014094066       0.000000000
    8 C                0.014335382      -0.012538272       0.000000000
    9 C               -0.020496387       0.008169515       0.000000000
   10 C               -0.006391473      -0.014524612      -0.000000000
   11 C               -0.000002986       0.013444195      -0.000000000
   12 H                0.000000884      -0.008912315      -0.000000000
   13 C                0.006396665      -0.014521739       0.000000000
   14 C               -0.000000536      -0.000424869       0.000000000
   15 H                0.000081888      -0.009055587       0.000000000
   16 H               -0.007685853      -0.004091047      -0.000000000
   17 H                0.000749643      -0.008861514       0.000000000
   18 H                0.000756414       0.008857134       0.000000000
   19 H               -0.007716095       0.004078777      -0.000000000
   20 H               -0.000027116       0.009111471      -0.000000000
   21 H               -0.000000851       0.008885049      -0.000000000
   22 C                0.020493846       0.008183428       0.000000000
   23 C               -0.014330584      -0.012547627       0.000000000
   24 C                0.011608895       0.019695592      -0.000000000
   25 H                0.000024911       0.009111669      -0.000000000
   26 C                0.007683982      -0.020513017       0.000000000
   27 C               -0.027562231       0.003471069       0.000000000
   28 C               -0.011066800       0.014087911      -0.000000000
   29 C               -0.025763688      -0.003566526      -0.000000000
   30 C                0.019571020      -0.022337845      -0.000000000
   31 H               -0.000759723       0.008857251       0.000000000
   32 H               -0.000079419      -0.009055455      -0.000000000
   33 H               -0.000746520      -0.008861093       0.000000000
   34 C                0.019675707       0.021508022       0.000000000
   35 H                0.007713239       0.004085293      -0.000000000
   36 H                0.007688736      -0.004084552      -0.000000000

 STATE-SPECIFIC GRADIENT OF STATE   2 (OVERALL STATE   4)
 ENERGY=     -841.2193190862 SPIN=  0.00 WEIGHT= 0.500000

 UNITS ARE HARTREE/BOHR    E'X               E'Y               E'Z 
    1 C                0.005368061      -0.003605523      -0.000000000
    2 C               -0.011709421      -0.007041692      -0.000000000
    3 C                0.041489719      -0.024895093       0.000000000
    4 C                0.023570166       0.024838728       0.000000000
    5 C               -0.005957043       0.002964928       0.000000000
    6 C               -0.006660814       0.011152509       0.000000000
    7 C               -0.025677680       0.017065050      -0.000000000
    8 C               -0.018621568      -0.008853801      -0.000000000
    9 C               -0.007961936      -0.011433050      -0.000000000
   10 C                0.013924255      -0.016036604       0.000000000
   11 C               -0.000003387       0.015891366       0.000000000
   12 H                0.000000728      -0.008381378       0.000000000
   13 C               -0.013918486      -0.016045975      -0.000000000
   14 C               -0.000002880       0.008515805      -0.000000000
   15 H                0.000062238      -0.008423296      -0.000000000
   16 H               -0.007734795      -0.004381263       0.000000000
   17 H                0.001096728      -0.008146302      -0.000000000
   18 H                0.000026974       0.009236925      -0.000000000
   19 H               -0.007367856       0.004413808       0.000000000
   20 H               -0.000425806       0.010153187       0.000000000
   21 H               -0.000001167       0.009948793       0.000000000
   22 C                0.007970417      -0.011426732      -0.000000000
   23 C                0.018624654      -0.008843158      -0.000000000
   24 C               -0.023582785       0.024825359       0.000000000
   25 H                0.000422999       0.010153590       0.000000000
   26 C               -0.041477257      -0.024920122      -0.000000000
   27 C                0.005953134       0.002966845      -0.000000000
   28 C                0.025671292       0.017081183       0.000000000
   29 C                0.011715058      -0.007036778       0.000000000
   30 C                0.006655301       0.011156639       0.000000000
   31 H               -0.000030499       0.009237461      -0.000000000
   32 H               -0.000060144      -0.008423163       0.000000000
   33 H               -0.001094023      -0.008146099      -0.000000000
   34 C               -0.005366834      -0.003607509      -0.000000000
   35 H                0.007364787       0.004420090       0.000000000
   36 H                0.007737869      -0.004374726       0.000000000

 NACME FOR STATE J->I HAVE OPPOSITE SIGN TO THE NACME CONNECTING STATE I->J,
 SO ONLY NACME FOR I>J ARE PRINTED, FOR STATES WITH SPIN QUANTUM NO. S=  0.00

 NONADIABATIC COUPLING MATRIX ELEMENT (NACME), IN ONE/BOHR
 <STATE  2, WEIGHT=   0.50000 | D/DQ | STATE  1, WEIGHT=   0.50000>
   ATOM               D/DX           D/DY           D/DZ
    1 C               0.0715655     -0.1747849      0.0000000
    2 C              -0.1946045     -0.0161574      0.0000000
    3 C               0.2555754     -0.1163438     -0.0000000
    4 C               0.3212838      0.1460320     -0.0000000
    5 C              -0.1911723      0.0131337     -0.0000000
    6 C               0.1164896      0.1609461     -0.0000000
    7 C              -0.2490500      0.0418278      0.0000000
    8 C              -0.1842772     -0.0963645      0.0000000
    9 C               0.0431376      0.0439645      0.0000000
   10 C               0.1046920      0.0396649     -0.0000000
   11 C              -0.0000202      0.0451511     -0.0000000
   12 H               0.0000020     -0.0063842     -0.0000000
   13 C              -0.1047015      0.0395974      0.0000000
   14 C               0.0000331     -0.0335146      0.0000000
   15 H              -0.0028255     -0.0048052      0.0000000
   16 H               0.0025503     -0.0024757     -0.0000000
   17 H              -0.0032876     -0.0010777      0.0000000
   18 H               0.0017602     -0.0042513     -0.0000000
   19 H               0.0001761      0.0006615     -0.0000000
   20 H               0.0007621     -0.0027694      0.0000000
   21 H               0.0000017     -0.0044852     -0.0000000
   22 C              -0.0431814      0.0439558      0.0000000
   23 C               0.1843353     -0.0962602     -0.0000000
   24 C              -0.3213805      0.1458404     -0.0000000
   25 H              -0.0007608     -0.0027701      0.0000000
   26 C              -0.2554964     -0.1164989      0.0000000
   27 C               0.1911677      0.0132514      0.0000000
   28 C               0.2490110      0.0419825     -0.0000000
   29 C               0.1946091     -0.0160380     -0.0000000
   30 C              -0.1165883      0.1608753     -0.0000000
   31 H              -0.0017576     -0.0042524     -0.0000000
   32 H               0.0028281     -0.0048037     -0.0000000
   33 H               0.0032882     -0.0010759      0.0000000
   34 C              -0.0714570     -0.1748275      0.0000000
   35 H              -0.0001766      0.0006614     -0.0000000
   36 H              -0.0025488     -0.0024774     -0.0000000

 TOTAL REPLICATED MEMORY USED FOR NACME RESPONSES=     42362252 WORDS.
 FREEING DISTRIBUTED STORAGE FOR [VIR VIR|OCC OCC] INTEGRALS
 FREEING DISTRIBUTED STORAGE FOR [OCC OCC|OCC OCC] INTEGRALS
 FREEING DISTRIBUTED STORAGE FOR [VIR OCC|OCC OCC] INTEGRALS
 FREEING DISTRIBUTED STORAGE FOR [VIR OCC|VIR OCC] INTEGRALS

 ...... DONE WITH CPMCHF EQUATIONS ......
 CPU     0: STEP CPU TIME=   544.29 TOTAL CPU TIME=       3370.9 (     56.2 MIN)
 TOTAL WALL CLOCK TIME=       3757.2 SECONDS, CPU UTILIZATION IS    89.72%
             42362252  WORDS OF DYNAMIC MEMORY USED
 EXECUTION OF GAMESS TERMINATED NORMALLY 23:54:53 21-MAR-2021    
 DDI: 262332072 bytes (250.2 MB / 31 MWords) used by master data server.

 ----------------------------------------
 CPU timing information for all processes
 ========================================
 0: 3343.166 + 27.817 = 3370.984
 1: 3043.546 + 22.367 = 3065.914
 2: 3051.745 + 22.707 = 3074.452
 3: 3025.297 + 26.267 = 3051.564
 4: 3039.343 + 22.668 = 3062.11
 5: 3106.248 + 27.928 = 3134.177
 6: 3067.121 + 26.615 = 3093.736
 7: 3031.288 + 25.422 = 3056.711
 8: 3081.515 + 24.944 = 3106.459
 9: 3044.835 + 25.45 = 3069.881
 10: 3025.775 + 26.509 = 3052.284
 11: 3029.31 + 22.173 = 3051.204
 12: 3052.957 + 23.672 = 3076.629
 13: 3040.393 + 25.429 = 3065.822
 14: 3017.522 + 20.916 = 3038.439
 15: 3029.258 + 25.11 = 3054.269
 16: 3090.865 + 23.735 = 3114.601
 17: 3050.971 + 23.608 = 3074.579
 18: 3046.610 + 23.439 = 3070.49
 19: 2989.693 + 21.876 = 3011.569
 ----------------------------------------
 ddikick.x: exited gracefully.
----- accounting info -----
Files used on the master node logoc were:
-rw-r--r-- 1 root root    449703 мар 21 22:52 /media/arthur/temp/pentacene_nacme.F05
-rw-r--r-- 1 root root    514096 мар 21 23:54 /media/arthur/temp/pentacene_nacme.F09
-rw-r--r-- 1 root root  20679040 мар 21 23:54 /media/arthur/temp/pentacene_nacme.F10
-rw-r--r-- 1 root root    156856 мар 21 23:28 /media/arthur/temp/pentacene_nacme.F12
-rw-r--r-- 1 root root    264048 мар 21 23:29 /media/arthur/temp/pentacene_nacme.F15
-rw-r--r-- 1 root root         0 мар 21 22:52 /media/arthur/temp/pentacene_nacme.F16
-rw-r--r-- 1 root root 110734560 мар 21 23:54 /media/arthur/temp/pentacene_nacme.F18
-rw-r--r-- 1 root root    424224 мар 21 23:54 /media/arthur/temp/pentacene_nacme.F19
-rw-r--r-- 1 root root    424224 мар 21 23:54 /media/arthur/temp/pentacene_nacme.F19.001
-rw-r--r-- 1 root root    424224 мар 21 23:54 /media/arthur/temp/pentacene_nacme.F19.002
-rw-r--r-- 1 root root    424224 мар 21 23:54 /media/arthur/temp/pentacene_nacme.F19.003
-rw-r--r-- 1 root root    424224 мар 21 23:54 /media/arthur/temp/pentacene_nacme.F19.004
-rw-r--r-- 1 root root    424224 мар 21 23:54 /media/arthur/temp/pentacene_nacme.F19.005
-rw-r--r-- 1 root root    424224 мар 21 23:54 /media/arthur/temp/pentacene_nacme.F19.006
-rw-r--r-- 1 root root    424224 мар 21 23:54 /media/arthur/temp/pentacene_nacme.F19.007
-rw-r--r-- 1 root root    424224 мар 21 23:54 /media/arthur/temp/pentacene_nacme.F19.008
-rw-r--r-- 1 root root    424224 мар 21 23:54 /media/arthur/temp/pentacene_nacme.F19.009
-rw-r--r-- 1 root root    424224 мар 21 23:54 /media/arthur/temp/pentacene_nacme.F19.010
-rw-r--r-- 1 root root    424224 мар 21 23:54 /media/arthur/temp/pentacene_nacme.F19.011
-rw-r--r-- 1 root root    424224 мар 21 23:54 /media/arthur/temp/pentacene_nacme.F19.012
-rw-r--r-- 1 root root    424224 мар 21 23:54 /media/arthur/temp/pentacene_nacme.F19.013
-rw-r--r-- 1 root root    424224 мар 21 23:54 /media/arthur/temp/pentacene_nacme.F19.014
-rw-r--r-- 1 root root    424224 мар 21 23:54 /media/arthur/temp/pentacene_nacme.F19.015
-rw-r--r-- 1 root root    424224 мар 21 23:54 /media/arthur/temp/pentacene_nacme.F19.016
-rw-r--r-- 1 root root    424224 мар 21 23:54 /media/arthur/temp/pentacene_nacme.F19.017
-rw-r--r-- 1 root root    424224 мар 21 23:54 /media/arthur/temp/pentacene_nacme.F19.018
-rw-r--r-- 1 root root    424224 мар 21 23:54 /media/arthur/temp/pentacene_nacme.F19.019
Вс 21 мар 2021 23:54:56 MSK
0.0u 0.0s 1:02:40.52 0.0% 0+0k 0+880io 0pf+0w
