----- GAMESS execution script 'rungms' -----
This job is running on host logoc
under operating system Linux at Вт мар 26 17:15:39 MSK 2024
Available scratch disk space (Kbyte units) at beginning of the job is
Файл.система   1K-блоков Использовано  Доступно Использовано% Cмонтировано в
/dev/nvme0n1   491135216    282256084 183857368           61% /media/arthur/temp
GAMESS temporary binary files will be written to /media/arthur/temp
GAMESS supplementary output files will be written to /usr/local/gamess/output
Copying input file ./Azulene_DFT_gradient.inp to your run's scratch directory...
 
Assuming a single but multicore node.
 

 Distributed Data Interface kickoff program.
 Initiating 32 compute processes on 1 nodes to run the following command:
 /usr/local/gamess/gamess.01.x Azulene_DFT_gradient 

          *******************************************************
          *                                                     *
          *          GAMESS VERSION = 30 SEP 2020 (R2)          *
          *                                                     *
          *              doi.org/10.1063/5.0005188              *
          *                                                     *
          **************** 64 BIT LINUX VERSION *****************

  GAMESS HAS BEEN MADE POSSIBLE WITH IMPORTANT CONTRIBUTIONS FROM
  THE FOLLOWING INDIVIDUALS (IN ALPHABETICAL ORDER):

     IVANA ADAMOVIC, CHRISTINE AIKENS, TOMOKO AKAMA,
     YURI ALEXEEV, YURIKO AOKI, POOJA ARORA, TOSHIO ASADA,
     ANDREY ASADCHEV, KIM K. BALDRIDGE, PRADIPTA BANDYOPADHYAY,
     MARIA BARYSZ, ROB BELL, JONATHAN BENTZ, COLLEEN BERTONI,
     JERRY A. BOATZ, BRETT BODE, KURT BRORSEN, KURT R. BRORSEN,
     LAIMUTIS BYTAUTAS, CALEB CARLIN, LAURA CARRINGTON,
     GALINA CHABAN, BENOIT CHAMPAGNE, WEI CHEN, MAHITO CHIBA,
     DAN CHIPMAN, CHEOL HO CHOI, TANNER CULPITT,
     DIPAYAN DATTA, PAUL DAY, ALBERT DEFUSCO,
     NUWAN DESILVA, J. EMILIANO DEUSTUA,
     TIM DUDLEY, MICHEL DUPUIS, STEVEN T. ELBERT,
     DMITRI FEDOROV, ALEX FINDLATER, GRAHAM FLETCHER,
     MARK FREITAG, CHRISTIAN FRIEDL, DAVID GARMER,
     IGOR S. GERASIMOV, KURT GLAESEMANN, MARK S. GORDON,
     JEFFREY GOUR, FENG LONG GU, EMILIE B. GUIDEZ,
     ANASTASIA GUNINA, SHARON HAMMES-SCHIFFER, MASATAKE HARUTA,
     KIMIHIKO HIRAO, YASUHIRO IKABATA, TZVETELIN IORDANOV,
     STEPHAN IRLE, KAZUYA ISHIMURA, JOE IVANIC, FRANK JENSEN,
     JAN H. JENSEN, VISVALDAS KAIRYS, MUNEAKI KAMIYA,
     MICHIO KATOUDA, NAOAKI KAWAKAMI, DAN KEMP, BERNARD KIRTMAN,
     KAZUO KITAURA, MARIUSZ KLOBUKOWSKI, MASATO KOBAYASHI,
     PRAKASHAN KORAMBATH, JACEK KORCHOWIEC, SHIRO KOSEKI,
     KAROL KOWALSKI, JIMMY KROMANN, STANISLAW KUCHARSKI,
     HENRY KURTZ, SAROM SOK LEANG, HUI LI, SHUHUA LI, WEI LI,
     JESSE LUTZ, ALEKSANDR O. LYKHIN, MARCIN MAKOWSKI,
     JOANI MATO, NIKITA MATSUNAGA, BENEDETTA MENNUCCI,
     GRANT MERRILL, NORIYUKI MINEZAWA, VLADIMIR MIRONOV,
     EISAKU MIYOSHI, JOHN A. MONTGOMERY JR., HIROTOSHI MORI,
     JONATHAN MULLIN, MONIKA MUSIAL, SHIGERU NAGASE,
     TAKESHI NAGATA, HIROMI NAKAI, TAKAHITO NAKAJIMA,
     YUYA NAKAJIMA, HARUYUKI NAKANO, HIROYA NAKATA, SEAN NEDD,
     HEATHER NETZLOFF, KIET A. NGUYEN, YOSHIO NISHIMOTO,
     BOSILJKA NJEGIC, RYAN OLSON, MIKE PAK, ROBERTO PEVERATI,
     BUU PHAM, PIOTR PIECUCH, ANNA POMOGAEVA, DAVID POOLE,
     SPENCER PRUITT, OLIVIER QUINET, LUKE ROSKOP,
     KLAUS RUEDENBERG, ANDREW SAND, TOSAPORN SATTASATHUCHANA,
     NOZOMI SAWADA, MICHAEL W. SCHMIDT, PATRICK E. SCHNEIDER,
     JUNJI SEINO, PRACHI SHARMA, JUN SHEN, JIM SHOEMAKER,
     YINAN SHU, DEJUN SI, JONATHAN SKONE, LYUDMILA SLIPCHENKO,
     TONY SMITH, JIE SONG, MARK SPACKMAN, CASPER STEINMANN,
     WALT STEVENS, PEIFENG SU, SHUJUN SU, CHET SWALINA,
     TETSUYA TAKETSUGU, ZHEN TAO, NANDUN THELLAMUREGE
     SEIKEN TOKURA, JACOPO TOMASI, TSUGUKI TOUMA, TAKAO TSUNEDA,
     HIROAKI UMEDA, JORGE LUIS GALVEZ VALLEJO, YALI WANG,
     SIMON WEBB, AARON WEST, THERESA L. WINDUS, MARTA WLOCH,
     PENG XU, KIYOSHI YAGI, SUSUMU YANAGISAWA, YANG YANG,
     SOOHAENG YOO, TAKESHI YOSHIKAWA, FEDERICO ZAHARIEV,
     TOBY ZENG

  WHO ARE SUPPORTED BY THEIR INSTITUTION/UNIVERSITY/COMPANY/GROUP
  (IN ALPHABETICAL ORDER):

     EP ANALYTICS, FACULTES UNIVERSITAIRES NOTRE-DAME DE LA PAIX,
     INSTITUTE FOR MOLECULAR SCIENCE, IOWA STATE UNIVERSITY,
     JACKSON STATE UNIVERSITY, JOHANNES KEPLER UNIVERSITY LINZ,
     KYUSHU UNIVERSITY, MICHIGAN STATE UNIVERSITY,
     MIE UNIVERSITY, MOSCOW STATE UNIVERSITY,
     N. COPERNICUS UNIVERSITY, NAGOYA UNIVERSITY,
     NANJING UNIVERSITY, NAT. INST. OF ADVANCED INDUSTRIAL
     SCIENCE AND TECHNOLOGY, NATIONAL INST. OF STANDARDS AND
     TECHNOLOGY, NESMEYANOV INSTITUTE OF ORGANOELEMENT COMPOUNDS
     OF RUSSIAN ACADEMY OF SCIENCES, OSAKA PREFECTURE UNIVERSITY,
     PENNSYLVANIA STATE UNIVERSITY, TOKYO INSTITUTE OF TECHNOLOGY,
     UNIVERSITY OF AARHUS, UNIVERSITY OF ALBERTA,
     UNIVERSITY OF CALIFORNIA AT SANTA BARBARA,
     UNIVERSITY OF COPENHAGEN, UNIVERSITY OF IOWA,
     UNIVERSITY OF MEMPHIS, UNIVERSITY OF MINNESOTA,
     UNIVERSITY OF NEBRASKA, UNIVERSITY OF NEW ENGLAND,
     UNIVERSITY OF NOTRE DAME, UNIVERSITY OF PISA,
     UNIVERSITY OF SILESIA, UNIVERSITY OF TOKYO,
     UNIVERSITY OF ZURICH, WASEDA UNIVERSITY, YALE UNIVERSITY

  GAMESS SOFTWARE MANAGEMENT TEAM FOR THIS RELEASE:
     MARK S. GORDON (TEAM LEAD),
     BRETT BODE (SENIOR ADVISOR),
     GIUSEPPE BARCA,
     COLLEEN BERTONI,
     KRISTOPHER KEIPERT (ADVISOR),
     SAROM S. LEANG (DEVELOPMENT LEAD),
     BUU PHAM,
     JORGE LUIS GALVEZ VALLEJO (WEBSITE ADMINISTRATOR),
     PENG XU


 PARALLEL VERSION RUNNING ON       32 PROCESSORS IN        1 NODES.

 EXECUTION OF GAMESS BEGUN 17:15:39 26-MAR-2024    

            ECHO OF THE FIRST FEW INPUT CARDS -
 INPUT CARD> $CONTRL SCFTYP=RHF RUNTYP=gradient EXETYP=RUN DFTTYP=USELIBXC                  
 INPUT CARD> MAXIT=70 MULT=1 ISPHER=1 $END                                                  
 INPUT CARD> $SYSTEM TIMLIM=525600 MWORDS=360 MEMDDI=400 $END                               
 INPUT CARD> $BASIS GBASIS=CCT $END                                                         
 INPUT CARD> $LIBXC FUNCTIONAL=wb97x $END                                                   
 INPUT CARD> $pcm solvnt=CYCHEXAN smd=.t. ief=-10 $end                                      
 INPUT CARD> $TESCAV MTHALL=2 NTSALL=240 $END                                               
 INPUT CARD> $PCMITR MXITR1=150 MXITR2=150 $END                                             
 INPUT CARD> $SCF DIRSCF=.TRUE. DIIS=.t. $END                                               
 INPUT CARD> $DATA                                                                          
 INPUT CARD>Azulene                                                                         
 INPUT CARD>C1                                                                              
 INPUT CARD> C           6.0  -0.0012556303   0.0002563157  -2.4960775183                   
 INPUT CARD> C           6.0   0.0004092320   1.2627710504  -1.8855019973                   
 INPUT CARD> C           6.0  -0.0021983097  -1.2624165252  -1.8858277120                   
 INPUT CARD> C           6.0   0.0014075294   1.6047144345  -0.5454738687                   
 INPUT CARD> C           6.0  -0.0018740832  -1.6047110353  -0.5458874735                   
 INPUT CARD> C           6.0   0.0009304694   0.7010814538   0.5468999128                   
 INPUT CARD> C           6.0  -0.0004914260  -0.7013630713   0.5467219681                   
 INPUT CARD> H           1.0  -0.0018237163   0.0003949106  -3.5786057681                   
 INPUT CARD> H           1.0   0.0009187044   2.1012217067  -2.5751107098                   
 INPUT CARD> H           1.0  -0.0034172669  -2.1006870616  -2.5756543171                   
 INPUT CARD> H           1.0   0.0026143472   2.6603313741  -0.3027238445                   
 INPUT CARD> H           1.0  -0.0027989475  -2.6603913899  -0.3034105230                   
 INPUT CARD> C           6.0   0.0018564673   1.1169281992   1.9256223466                   
 INPUT CARD> C           6.0  -0.0003962188  -1.1175557169   1.9253392916                   
 INPUT CARD> H           1.0   0.0030132636   2.1506877603   2.2431539966                   
 INPUT CARD> H           1.0  -0.0013244553  -2.1513949496   2.2426128372                   
 INPUT CARD> C           6.0   0.0010339870  -0.0004196679   2.7580117930                   
 INPUT CARD> H           1.0   0.0014234482  -0.0005581891   3.8359477808                   
 INPUT CARD> $END                                                                           
  360000000 WORDS OF MEMORY AVAILABLE

     BASIS OPTIONS
     -------------
     GBASIS=CCT          IGAUSS=       0      POLAR=NONE    
     NDFUNC=       0     NFFUNC=       0     DIFFSP=       F
     NPFUNC=       0      DIFFS=       F     BASNAM=        


     RUN TITLE
     ---------
 Azulene                                                                         

 THE POINT GROUP OF THE MOLECULE IS C1      
 THE ORDER OF THE PRINCIPAL AXIS IS     0

 ATOM      ATOMIC                      COORDINATES (BOHR)
           CHARGE         X                   Y                   Z
 C           6.0    -0.0023727972        0.0004843664       -4.7169025537
 C           6.0     0.0007733363        2.3862912705       -3.5630821242
 C           6.0    -0.0041542030       -2.3856213150       -3.5636976357
 C           6.0     0.0026598449        3.0324705697       -1.0307961453
 C           6.0    -0.0035415037       -3.0324641462       -1.0315777450
 C           6.0     0.0017583322        1.3248518428        1.0334909779
 C           6.0    -0.0009286605       -1.3253840227        1.0331547112
 H           1.0    -0.0034463241        0.0007462728       -6.7625843198
 H           1.0     0.0017360996        3.9707332651       -4.8662536296
 H           1.0    -0.0064576981       -3.9697229324       -4.8672808984
 H           1.0     0.0049403998        5.0272973336       -0.5720651161
 H           1.0    -0.0052892438       -5.0274107470       -0.5733627503
 C           6.0     0.0035082145        2.1106882444        3.6388985909
 C           6.0    -0.0007487450       -2.1118740810        3.6383636945
 H           1.0     0.0056942425        4.0642105521        4.2389464018
 H           1.0    -0.0025028576       -4.0655469461        4.2379237589
 C           6.0     0.0019539521       -0.0007930573        5.2118865597
 H           1.0     0.0026899271       -0.0010548244        7.2488902089

          INTERNUCLEAR DISTANCES (ANGS.)
          ------------------------------

                1 C          2 C          3 C          4 C          5 C     

   1 C       0.0000000    1.4024082 *  1.4024081 *  2.5256974 *  2.5257003 *
   2 C       1.4024082 *  0.0000000    2.5251889 *  1.3829684 *  3.1649685  
   3 C       1.4024081 *  2.5251889 *  0.0000000    3.1649647    1.3829698 *
   4 C       2.5256974 *  1.3829684 *  3.1649647    0.0000000    3.2094272  
   5 C       2.5257003 *  3.1649685    1.3829698 *  3.2094272    0.0000000  
   6 C       3.1226387    2.4964123 *  3.1262594    1.4176859 *  2.5516409 *
   7 C       3.1226430    3.1262657    2.4964138 *  2.5516443 *  1.4176864 *
   8 H       1.0825284 *  2.1119183 *  2.1119163 *  3.4312885    3.4312892  
   9 H       2.1024525 *  1.0856150 *  3.4335380    2.0894845 *  4.2251263  
  10 H       2.1024510 *  3.4335369    1.0856149 *  4.2251220    2.0894851 *
  11 H       3.4477260    2.1114844 *  4.2301527    1.0831695 *  4.2719709  
  12 H       3.4477293    4.2301569    2.1114872 *  4.2719714    1.0831699 *
  13 C       4.5605258    3.8139141    4.4931558    2.5187799 *  3.6763698  
  14 C       4.5605297    4.4931579    3.8139195    3.6763672    2.5187863 *
  15 H       5.2042952    4.2230561    5.3570326    2.8415726 *  4.6777982  
  16 H       5.2043049    5.3570388    4.2230682    4.6777978    2.8415836 *
  17 C       5.2540899    4.8122626    4.8122647    3.6728018    3.6728068  
  18 H       6.3320259    5.8592653    5.8592674    4.6662357    4.6662402  

                6 C          7 C          8 H          9 H         10 H     

   1 C       3.1226387    3.1226430    1.0825284 *  2.1024525 *  2.1024510 *
   2 C       2.4964123 *  3.1262657    2.1119183 *  1.0856150 *  3.4335369  
   3 C       3.1262594    2.4964138 *  2.1119163 *  3.4335380    1.0856149 *
   4 C       1.4176859 *  2.5516443 *  3.4312885    2.0894845 *  4.2251220  
   5 C       2.5516409 *  1.4176864 *  3.4312892    4.2251263    2.0894851 *
   6 C       0.0000000    1.4024453 *  4.1845868    3.4215995    4.1952676  
   7 C       1.4024453 *  0.0000000    4.1845902    4.1952739    3.4216005  
   8 H       4.1845868    4.1845902    0.0000000    2.3281931 *  2.3281881 *
   9 H       3.4215995    4.1952739    2.3281931 *  0.0000000    4.2019110  
  10 H       4.1952676    3.4216005    2.3281881 *  4.2019110    0.0000000  
  11 H       2.1355382 *  3.4673560    4.2197967    2.3401599 *  5.2757507  
  12 H       3.4673537    2.1355380 *  4.2197972    5.2757554    2.3401626 *
  13 C       1.4400712 *  2.2820068 *  5.6163322    4.6071068    5.5330432  
  14 C       2.2820031 *  1.4400702 *  5.6163357    5.5330444    4.6071140  
  15 H       2.2312868 *  3.3184466    6.2061799    4.8185191    6.4261297  
  16 H       3.3184438    2.2312864 *  6.2061893    6.4261352    4.8185344  
  17 C       2.3197240 *  2.3197256 *  6.3366183    5.7322851    5.7322890  
  18 H       3.3630543    3.3630548    7.4145543    6.7467881    6.7467923  

               11 H         12 H         13 C         14 C         15 H     

   1 C       3.4477260    3.4477293    4.5605258    4.5605297    5.2042952  
   2 C       2.1114844 *  4.2301569    3.8139141    4.4931579    4.2230561  
   3 C       4.2301527    2.1114872 *  4.4931558    3.8139195    5.3570326  
   4 C       1.0831695 *  4.2719714    2.5187799 *  3.6763672    2.8415726 *
   5 C       4.2719709    1.0831699 *  3.6763698    2.5187863 *  4.6777982  
   6 C       2.1355382 *  3.4673537    1.4400712 *  2.2820031 *  2.2312868 *
   7 C       3.4673560    2.1355380 *  2.2820068 *  1.4400702 *  3.3184466  
   8 H       4.2197967    4.2197972    5.6163322    5.6163357    6.2061799  
   9 H       2.3401599 *  5.2757554    4.6071068    5.5330444    4.8185191  
  10 H       5.2757507    2.3401626 *  5.5330432    4.6071140    6.4261297  
  11 H       0.0000000    5.3207256    2.7106495 *  4.3859669    2.5963880 *
  12 H       5.3207256    0.0000000    4.3859722    2.7106592 *  5.4434830  
  13 C       2.7106495 *  4.3859722    0.0000000    2.2344851 *  1.0814280 *
  14 C       4.3859669    2.7106592 *  2.2344851 *  0.0000000    3.2836616  
  15 H       2.5963880 *  5.4434830    1.0814280 *  3.2836616    0.0000000  
  16 H       5.4434791    2.5964041 *  3.2836610    1.0814282 *  4.3020849  
  17 C       4.0555766    4.0555851    1.3933195 *  1.3933192 *  2.2118647 *
  18 H       4.9202579    4.9202660    2.2131695 *  2.2131678 *  2.6767244 *

               16 H         17 C         18 H     

   1 C       5.2043049    5.2540899    6.3320259  
   2 C       5.3570388    4.8122626    5.8592653  
   3 C       4.2230682    4.8122647    5.8592674  
   4 C       4.6777978    3.6728018    4.6662357  
   5 C       2.8415836 *  3.6728068    4.6662402  
   6 C       3.3184438    2.3197240 *  3.3630543  
   7 C       2.2312864 *  2.3197256 *  3.3630548  
   8 H       6.2061893    6.3366183    7.4145543  
   9 H       6.4261352    5.7322851    6.7467881  
  10 H       4.8185344    5.7322890    6.7467923  
  11 H       5.4434791    4.0555766    4.9202579  
  12 H       2.5964041 *  4.0555851    4.9202660  
  13 C       3.2836610    1.3933195 *  2.2131695 *
  14 C       1.0814282 *  1.3933192 *  2.2131678 *
  15 H       4.3020849    2.2118647 *  2.6767244 *
  16 H       0.0000000    2.2118626 *  2.6767186 *
  17 C       2.2118626 *  0.0000000    1.0779361 *
  18 H       2.6767186 *  1.0779361 *  0.0000000  

  * ... LESS THAN  3.000


     ATOMIC BASIS SET
     ----------------
 THE CONTRACTED PRIMITIVE FUNCTIONS HAVE BEEN UNNORMALIZED
 THE CONTRACTED BASIS FUNCTIONS ARE NOW NORMALIZED TO UNITY

  SHELL TYPE  PRIMITIVE        EXPONENT          CONTRACTION COEFFICIENT(S)

 C         

      1   S       1          8236.0000000    0.000542430189
      1   S       2          1235.0000000    0.004196427901
      1   S       3           280.8000000    0.021540914108
      1   S       4            79.2700000    0.083614949614
      1   S       5            25.5900000    0.239871618922
      1   S       6             8.9970000    0.443751820060
      1   S       7             3.3190000    0.353579696469
      1   S       8             0.3643000   -0.009176366076

      2   S       9          8236.0000000   -0.000196392234
      2   S      10          1235.0000000   -0.001525950274
      2   S      11           280.8000000   -0.007890449028
      2   S      12            79.2700000   -0.031514870532
      2   S      13            25.5900000   -0.096910008320
      2   S      14             8.9970000   -0.220541526288
      2   S      15             3.3190000   -0.296069112937
      2   S      16             0.3643000    1.040503432950

      3   S      17             0.9059000    1.000000000000

      4   S      18             0.1285000    1.000000000000

      5   P      19            18.7100000    0.039426387165
      5   P      20             4.1330000    0.244088984924
      5   P      21             1.2000000    0.815492008943

      6   P      22             0.3827000    1.000000000000

      7   P      23             0.1209000    1.000000000000

      8   D      24             1.0970000    1.000000000000

      9   D      25             0.3180000    1.000000000000

     10   F      26             0.7610000    1.000000000000

 C         

     11   S      27          8236.0000000    0.000542430189
     11   S      28          1235.0000000    0.004196427901
     11   S      29           280.8000000    0.021540914108
     11   S      30            79.2700000    0.083614949614
     11   S      31            25.5900000    0.239871618922
     11   S      32             8.9970000    0.443751820060
     11   S      33             3.3190000    0.353579696469
     11   S      34             0.3643000   -0.009176366076

     12   S      35          8236.0000000   -0.000196392234
     12   S      36          1235.0000000   -0.001525950274
     12   S      37           280.8000000   -0.007890449028
     12   S      38            79.2700000   -0.031514870532
     12   S      39            25.5900000   -0.096910008320
     12   S      40             8.9970000   -0.220541526288
     12   S      41             3.3190000   -0.296069112937
     12   S      42             0.3643000    1.040503432950

     13   S      43             0.9059000    1.000000000000

     14   S      44             0.1285000    1.000000000000

     15   P      45            18.7100000    0.039426387165
     15   P      46             4.1330000    0.244088984924
     15   P      47             1.2000000    0.815492008943

     16   P      48             0.3827000    1.000000000000

     17   P      49             0.1209000    1.000000000000

     18   D      50             1.0970000    1.000000000000

     19   D      51             0.3180000    1.000000000000

     20   F      52             0.7610000    1.000000000000

 C         

     21   S      53          8236.0000000    0.000542430189
     21   S      54          1235.0000000    0.004196427901
     21   S      55           280.8000000    0.021540914108
     21   S      56            79.2700000    0.083614949614
     21   S      57            25.5900000    0.239871618922
     21   S      58             8.9970000    0.443751820060
     21   S      59             3.3190000    0.353579696469
     21   S      60             0.3643000   -0.009176366076

     22   S      61          8236.0000000   -0.000196392234
     22   S      62          1235.0000000   -0.001525950274
     22   S      63           280.8000000   -0.007890449028
     22   S      64            79.2700000   -0.031514870532
     22   S      65            25.5900000   -0.096910008320
     22   S      66             8.9970000   -0.220541526288
     22   S      67             3.3190000   -0.296069112937
     22   S      68             0.3643000    1.040503432950

     23   S      69             0.9059000    1.000000000000

     24   S      70             0.1285000    1.000000000000

     25   P      71            18.7100000    0.039426387165
     25   P      72             4.1330000    0.244088984924
     25   P      73             1.2000000    0.815492008943

     26   P      74             0.3827000    1.000000000000

     27   P      75             0.1209000    1.000000000000

     28   D      76             1.0970000    1.000000000000

     29   D      77             0.3180000    1.000000000000

     30   F      78             0.7610000    1.000000000000

 C         

     31   S      79          8236.0000000    0.000542430189
     31   S      80          1235.0000000    0.004196427901
     31   S      81           280.8000000    0.021540914108
     31   S      82            79.2700000    0.083614949614
     31   S      83            25.5900000    0.239871618922
     31   S      84             8.9970000    0.443751820060
     31   S      85             3.3190000    0.353579696469
     31   S      86             0.3643000   -0.009176366076

     32   S      87          8236.0000000   -0.000196392234
     32   S      88          1235.0000000   -0.001525950274
     32   S      89           280.8000000   -0.007890449028
     32   S      90            79.2700000   -0.031514870532
     32   S      91            25.5900000   -0.096910008320
     32   S      92             8.9970000   -0.220541526288
     32   S      93             3.3190000   -0.296069112937
     32   S      94             0.3643000    1.040503432950

     33   S      95             0.9059000    1.000000000000

     34   S      96             0.1285000    1.000000000000

     35   P      97            18.7100000    0.039426387165
     35   P      98             4.1330000    0.244088984924
     35   P      99             1.2000000    0.815492008943

     36   P     100             0.3827000    1.000000000000

     37   P     101             0.1209000    1.000000000000

     38   D     102             1.0970000    1.000000000000

     39   D     103             0.3180000    1.000000000000

     40   F     104             0.7610000    1.000000000000

 C         

     41   S     105          8236.0000000    0.000542430189
     41   S     106          1235.0000000    0.004196427901
     41   S     107           280.8000000    0.021540914108
     41   S     108            79.2700000    0.083614949614
     41   S     109            25.5900000    0.239871618922
     41   S     110             8.9970000    0.443751820060
     41   S     111             3.3190000    0.353579696469
     41   S     112             0.3643000   -0.009176366076

     42   S     113          8236.0000000   -0.000196392234
     42   S     114          1235.0000000   -0.001525950274
     42   S     115           280.8000000   -0.007890449028
     42   S     116            79.2700000   -0.031514870532
     42   S     117            25.5900000   -0.096910008320
     42   S     118             8.9970000   -0.220541526288
     42   S     119             3.3190000   -0.296069112937
     42   S     120             0.3643000    1.040503432950

     43   S     121             0.9059000    1.000000000000

     44   S     122             0.1285000    1.000000000000

     45   P     123            18.7100000    0.039426387165
     45   P     124             4.1330000    0.244088984924
     45   P     125             1.2000000    0.815492008943

     46   P     126             0.3827000    1.000000000000

     47   P     127             0.1209000    1.000000000000

     48   D     128             1.0970000    1.000000000000

     49   D     129             0.3180000    1.000000000000

     50   F     130             0.7610000    1.000000000000

 C         

     51   S     131          8236.0000000    0.000542430189
     51   S     132          1235.0000000    0.004196427901
     51   S     133           280.8000000    0.021540914108
     51   S     134            79.2700000    0.083614949614
     51   S     135            25.5900000    0.239871618922
     51   S     136             8.9970000    0.443751820060
     51   S     137             3.3190000    0.353579696469
     51   S     138             0.3643000   -0.009176366076

     52   S     139          8236.0000000   -0.000196392234
     52   S     140          1235.0000000   -0.001525950274
     52   S     141           280.8000000   -0.007890449028
     52   S     142            79.2700000   -0.031514870532
     52   S     143            25.5900000   -0.096910008320
     52   S     144             8.9970000   -0.220541526288
     52   S     145             3.3190000   -0.296069112937
     52   S     146             0.3643000    1.040503432950

     53   S     147             0.9059000    1.000000000000

     54   S     148             0.1285000    1.000000000000

     55   P     149            18.7100000    0.039426387165
     55   P     150             4.1330000    0.244088984924
     55   P     151             1.2000000    0.815492008943

     56   P     152             0.3827000    1.000000000000

     57   P     153             0.1209000    1.000000000000

     58   D     154             1.0970000    1.000000000000

     59   D     155             0.3180000    1.000000000000

     60   F     156             0.7610000    1.000000000000

 C         

     61   S     157          8236.0000000    0.000542430189
     61   S     158          1235.0000000    0.004196427901
     61   S     159           280.8000000    0.021540914108
     61   S     160            79.2700000    0.083614949614
     61   S     161            25.5900000    0.239871618922
     61   S     162             8.9970000    0.443751820060
     61   S     163             3.3190000    0.353579696469
     61   S     164             0.3643000   -0.009176366076

     62   S     165          8236.0000000   -0.000196392234
     62   S     166          1235.0000000   -0.001525950274
     62   S     167           280.8000000   -0.007890449028
     62   S     168            79.2700000   -0.031514870532
     62   S     169            25.5900000   -0.096910008320
     62   S     170             8.9970000   -0.220541526288
     62   S     171             3.3190000   -0.296069112937
     62   S     172             0.3643000    1.040503432950

     63   S     173             0.9059000    1.000000000000

     64   S     174             0.1285000    1.000000000000

     65   P     175            18.7100000    0.039426387165
     65   P     176             4.1330000    0.244088984924
     65   P     177             1.2000000    0.815492008943

     66   P     178             0.3827000    1.000000000000

     67   P     179             0.1209000    1.000000000000

     68   D     180             1.0970000    1.000000000000

     69   D     181             0.3180000    1.000000000000

     70   F     182             0.7610000    1.000000000000

 H         

     71   S     183            33.8700000    0.025494863235
     71   S     184             5.0950000    0.190362765893
     71   S     185             1.1590000    0.852162022245

     72   S     186             0.3258000    1.000000000000

     73   S     187             0.1027000    1.000000000000

     74   P     188             1.4070000    1.000000000000

     75   P     189             0.3880000    1.000000000000

     76   D     190             1.0570000    1.000000000000

 H         

     77   S     191            33.8700000    0.025494863235
     77   S     192             5.0950000    0.190362765893
     77   S     193             1.1590000    0.852162022245

     78   S     194             0.3258000    1.000000000000

     79   S     195             0.1027000    1.000000000000

     80   P     196             1.4070000    1.000000000000

     81   P     197             0.3880000    1.000000000000

     82   D     198             1.0570000    1.000000000000

 H         

     83   S     199            33.8700000    0.025494863235
     83   S     200             5.0950000    0.190362765893
     83   S     201             1.1590000    0.852162022245

     84   S     202             0.3258000    1.000000000000

     85   S     203             0.1027000    1.000000000000

     86   P     204             1.4070000    1.000000000000

     87   P     205             0.3880000    1.000000000000

     88   D     206             1.0570000    1.000000000000

 H         

     89   S     207            33.8700000    0.025494863235
     89   S     208             5.0950000    0.190362765893
     89   S     209             1.1590000    0.852162022245

     90   S     210             0.3258000    1.000000000000

     91   S     211             0.1027000    1.000000000000

     92   P     212             1.4070000    1.000000000000

     93   P     213             0.3880000    1.000000000000

     94   D     214             1.0570000    1.000000000000

 H         

     95   S     215            33.8700000    0.025494863235
     95   S     216             5.0950000    0.190362765893
     95   S     217             1.1590000    0.852162022245

     96   S     218             0.3258000    1.000000000000

     97   S     219             0.1027000    1.000000000000

     98   P     220             1.4070000    1.000000000000

     99   P     221             0.3880000    1.000000000000

    100   D     222             1.0570000    1.000000000000

 C         

    101   S     223          8236.0000000    0.000542430189
    101   S     224          1235.0000000    0.004196427901
    101   S     225           280.8000000    0.021540914108
    101   S     226            79.2700000    0.083614949614
    101   S     227            25.5900000    0.239871618922
    101   S     228             8.9970000    0.443751820060
    101   S     229             3.3190000    0.353579696469
    101   S     230             0.3643000   -0.009176366076

    102   S     231          8236.0000000   -0.000196392234
    102   S     232          1235.0000000   -0.001525950274
    102   S     233           280.8000000   -0.007890449028
    102   S     234            79.2700000   -0.031514870532
    102   S     235            25.5900000   -0.096910008320
    102   S     236             8.9970000   -0.220541526288
    102   S     237             3.3190000   -0.296069112937
    102   S     238             0.3643000    1.040503432950

    103   S     239             0.9059000    1.000000000000

    104   S     240             0.1285000    1.000000000000

    105   P     241            18.7100000    0.039426387165
    105   P     242             4.1330000    0.244088984924
    105   P     243             1.2000000    0.815492008943

    106   P     244             0.3827000    1.000000000000

    107   P     245             0.1209000    1.000000000000

    108   D     246             1.0970000    1.000000000000

    109   D     247             0.3180000    1.000000000000

    110   F     248             0.7610000    1.000000000000

 C         

    111   S     249          8236.0000000    0.000542430189
    111   S     250          1235.0000000    0.004196427901
    111   S     251           280.8000000    0.021540914108
    111   S     252            79.2700000    0.083614949614
    111   S     253            25.5900000    0.239871618922
    111   S     254             8.9970000    0.443751820060
    111   S     255             3.3190000    0.353579696469
    111   S     256             0.3643000   -0.009176366076

    112   S     257          8236.0000000   -0.000196392234
    112   S     258          1235.0000000   -0.001525950274
    112   S     259           280.8000000   -0.007890449028
    112   S     260            79.2700000   -0.031514870532
    112   S     261            25.5900000   -0.096910008320
    112   S     262             8.9970000   -0.220541526288
    112   S     263             3.3190000   -0.296069112937
    112   S     264             0.3643000    1.040503432950

    113   S     265             0.9059000    1.000000000000

    114   S     266             0.1285000    1.000000000000

    115   P     267            18.7100000    0.039426387165
    115   P     268             4.1330000    0.244088984924
    115   P     269             1.2000000    0.815492008943

    116   P     270             0.3827000    1.000000000000

    117   P     271             0.1209000    1.000000000000

    118   D     272             1.0970000    1.000000000000

    119   D     273             0.3180000    1.000000000000

    120   F     274             0.7610000    1.000000000000

 H         

    121   S     275            33.8700000    0.025494863235
    121   S     276             5.0950000    0.190362765893
    121   S     277             1.1590000    0.852162022245

    122   S     278             0.3258000    1.000000000000

    123   S     279             0.1027000    1.000000000000

    124   P     280             1.4070000    1.000000000000

    125   P     281             0.3880000    1.000000000000

    126   D     282             1.0570000    1.000000000000

 H         

    127   S     283            33.8700000    0.025494863235
    127   S     284             5.0950000    0.190362765893
    127   S     285             1.1590000    0.852162022245

    128   S     286             0.3258000    1.000000000000

    129   S     287             0.1027000    1.000000000000

    130   P     288             1.4070000    1.000000000000

    131   P     289             0.3880000    1.000000000000

    132   D     290             1.0570000    1.000000000000

 C         

    133   S     291          8236.0000000    0.000542430189
    133   S     292          1235.0000000    0.004196427901
    133   S     293           280.8000000    0.021540914108
    133   S     294            79.2700000    0.083614949614
    133   S     295            25.5900000    0.239871618922
    133   S     296             8.9970000    0.443751820060
    133   S     297             3.3190000    0.353579696469
    133   S     298             0.3643000   -0.009176366076

    134   S     299          8236.0000000   -0.000196392234
    134   S     300          1235.0000000   -0.001525950274
    134   S     301           280.8000000   -0.007890449028
    134   S     302            79.2700000   -0.031514870532
    134   S     303            25.5900000   -0.096910008320
    134   S     304             8.9970000   -0.220541526288
    134   S     305             3.3190000   -0.296069112937
    134   S     306             0.3643000    1.040503432950

    135   S     307             0.9059000    1.000000000000

    136   S     308             0.1285000    1.000000000000

    137   P     309            18.7100000    0.039426387165
    137   P     310             4.1330000    0.244088984924
    137   P     311             1.2000000    0.815492008943

    138   P     312             0.3827000    1.000000000000

    139   P     313             0.1209000    1.000000000000

    140   D     314             1.0970000    1.000000000000

    141   D     315             0.3180000    1.000000000000

    142   F     316             0.7610000    1.000000000000

 H         

    143   S     317            33.8700000    0.025494863235
    143   S     318             5.0950000    0.190362765893
    143   S     319             1.1590000    0.852162022245

    144   S     320             0.3258000    1.000000000000

    145   S     321             0.1027000    1.000000000000

    146   P     322             1.4070000    1.000000000000

    147   P     323             0.3880000    1.000000000000

    148   D     324             1.0570000    1.000000000000

 TOTAL NUMBER OF BASIS SET SHELLS             =  148
 NUMBER OF CARTESIAN GAUSSIAN BASIS FUNCTIONS =  470
 NOTE: THIS RUN WILL RESTRICT THE MO VARIATION SPACE TO SPHERICAL HARMONICS.
 THE NUMBER OF ORBITALS KEPT IN THE VARIATIONAL SPACE WILL BE PRINTED LATER.
 NUMBER OF ELECTRONS                          =   68
 CHARGE OF MOLECULE                           =    0
 SPIN MULTIPLICITY                            =    1
 NUMBER OF OCCUPIED ORBITALS (ALPHA)          =   34
 NUMBER OF OCCUPIED ORBITALS (BETA )          =   34
 TOTAL NUMBER OF ATOMS                        =   18
 THE NUCLEAR REPULSION ENERGY IS      454.3980546699

 SELECTED MURRAY-HANDY-LAMING RADIAL GRID

 LEGACY BECKE'S FUZZY CELL METHOD

 SELECTED ORIGINAL BECKE'S PARTITION FUNCTION

     LEBEDEV GRID-BASED DFT OPTIONS
     ------------------------------
     DFTTYP=USELIBXC
     NRAD  =      96     NLEB  =     302
     NRAD0 =      24     NLEB0 =     110
     SWOFF =    5.00E-03 (PURE SCF -> DFT)
     SWITCH=    3.00E-04 (COARSE -> TIGHT GRID)
     THRESH=    0.00E+00 GTHRE=    1.00E+00
 
 THE FOLLOWING PAPER SHOULD BE CITED WHEN USING LIBXC INTERFACE:
 Susi Lehtola, Conrad Steigemann, Micael J.T. Oliveira, and Miguel A.L. Marques,
 Recent developments in Libxc - A comprehensive library of functionals for density functional theory,
 SoftwareX Volume 7, 2018, pp. 1-5
 DOI: 10.1016/j.softx.2017.11.002
 
 The information about selected functionals:
The wB97X range-separated functional exchange-correlation functional will be used with a coefficient   1.00000000E+00.
The next articles are related to this functional:
[0] J.-D. Chai and M. Head-Gordon, J. Chem. Phys. 128, 084106 (2008)

 GRIMME'S EMPIRICAL DISPERSION CORRECTION= F

     $CONTRL OPTIONS
     ---------------
 SCFTYP=RHF          RUNTYP=GRADIENT     EXETYP=RUN     
 MPLEVL=       0     CITYP =NONE         CCTYP =NONE         VBTYP =NONE    
 DFTTYP=USELIBXC     TDDFT =NONE    
 MULT  =       1     ICHARG=       0     NZVAR =       0     COORD =UNIQUE  
 PP    =NONE         RELWFN=NONE         LOCAL =NONE         NUMGRD=       F
 ISPHER=       1     NOSYM =       0     MAXIT =      70     UNITS =ANGS    
 PLTORB=       F     MOLPLT=       F     AIMPAC=       F     FRIEND=        
 NPRINT=       7     IREST =       0     GEOM  =INPUT   
 NORMF =       0     NORMP =       0     ITOL  =      20     ICUT  =       9
 INTTYP=BEST         GRDTYP=BEST         QMTTOL= 1.0E-06

     $SYSTEM OPTIONS
     ---------------
  REPLICATED MEMORY=   360000000 WORDS (ON EVERY NODE).
 DISTRIBUTED MEMDDI=         400 MILLION WORDS IN AGGREGATE,
 MEMDDI DISTRIBUTED OVER  32 PROCESSORS IS    12500000 WORDS/PROCESSOR.
 TOTAL MEMORY REQUESTED ON EACH PROCESSOR=   372500000 WORDS.
 TIMLIM=      525600.00 MINUTES, OR     365.0 DAYS.
 PARALL= T  BALTYP=  DLB     KDIAG=    0  COREFL= F
 MXSEQ2=     300 MXSEQ3=     150  mem10=         0  mem22=         0

     -----------------------------------
     INPUT FOR PCM SOLVATION CALCULATION 
     -----------------------------------
     IEF   =     -10
     ICOMP =       0     IFIELD=       0     ICAV  =       0
     IDISP =       0     IREP  =       0     IDP   =       0

     SOLVNT=CYCHEXAN     EPS   =  2.0165     EPSINF=  2.0352
     VMOL  =  0.0000     TCE   =  0.00000000 STEN  =  0.0000
     DSTEN =  0.0000     CMF   =  0.0000     RSOLV =  0.0000

     NESFP =       0
     OMEGA = 40.0000     RET   =100.0000     FRO   =  0.7000

     TABS  =298.0000     IPRINT=       0

     --------------------------------
     INPUT FOR ITERATIVE C-PCM METHOD 
     --------------------------------
     IPCMIT  =         1     MXDIIS  =        50
     MXITR1  =       150     MXITR2  =       150
     THRES   = 0.100E-09     IMUL    =         3
     RCUT(1) =   15.0000     RCUT(2) =   30.0000

     IDIRCT  =         1
     IMGABI  =         0     RABI    =    4.0000
     IMGASC  =         0     RASC    =   20.0000
     THRSLS  = 0.500E-03     DENSLS  =    0.0100
     IEFPOL  =         1     REFPOL  =    0.0000

     ------------------------------------
     INPUT FOR NONAQUEOUS SMD CALCULATION 
     ------------------------------------
     SOLVNT= cyclohexane                     EPS   =  2.0165
     SOLA  =  0.0000     SOLB  =  0.0000     SOLC  =  0.0000
     SOLG  = 35.4800     SOLH  =  0.0000     SOLN  =  1.4266

     INPUT FOR ISOTROPIC DIELECTRICS
     -------------------------------
     EPS=     2.02

     INPUT FOR CAVITY DEFINITION 
     ---------------------------
   ATOM               COORDINATES                RADIUS       EPS
      1     -0.0013      0.0003     -2.4961      1.8500      2.0165
      2      0.0004      1.2628     -1.8855      1.8500      2.0165
      3     -0.0022     -1.2624     -1.8858      1.8500      2.0165
      4      0.0014      1.6047     -0.5455      1.8500      2.0165
      5     -0.0019     -1.6047     -0.5459      1.8500      2.0165
      6      0.0009      0.7011      0.5469      1.8500      2.0165
      7     -0.0005     -0.7014      0.5467      1.8500      2.0165
      8     -0.0018      0.0004     -3.5786      1.2000      2.0165
      9      0.0009      2.1012     -2.5751      1.2000      2.0165
     10     -0.0034     -2.1007     -2.5757      1.2000      2.0165
     11      0.0026      2.6603     -0.3027      1.2000      2.0165
     12     -0.0028     -2.6604     -0.3034      1.2000      2.0165
     13      0.0019      1.1169      1.9256      1.8500      2.0165
     14     -0.0004     -1.1176      1.9253      1.8500      2.0165
     15      0.0030      2.1507      2.2432      1.2000      2.0165
     16     -0.0013     -2.1514      2.2426      1.2000      2.0165
     17      0.0010     -0.0004      2.7580      1.8500      2.0165
     18      0.0014     -0.0006      3.8359      1.2000      2.0165

     ----------------------------
     INPUT FOR TESSERA DEFINITION
     ----------------------------
     NTSALL  =       240     MTHALL  =         2
     MTHAUT  =         0     AUTFRE  =    2.0000
     NTSFRZ  =        60     KEEPSM  =         0
     AREAKP  =   10.0000     BONDRY  =    1.0000
     AREATL  =    0.0100

     SPHERE     INITS       METHOD
          1       240     GEPOL-AS
          2       240     GEPOL-AS
          3       240     GEPOL-AS
          4       240     GEPOL-AS
          5       240     GEPOL-AS
          6       240     GEPOL-AS
          7       240     GEPOL-AS
          8       240     GEPOL-AS
          9       240     GEPOL-AS
         10       240     GEPOL-AS
         11       240     GEPOL-AS
         12       240     GEPOL-AS
         13       240     GEPOL-AS
         14       240     GEPOL-AS
         15       240     GEPOL-AS
         16       240     GEPOL-AS
         17       240     GEPOL-AS
         18       240     GEPOL-AS

     -----------------------------
     INPUT FOR PCM GRADIENT METHOD
     -----------------------------
     IPCDER  =         2     IFAST   =         0
     VARIABLE-TESSERA-NUMBER GRADIENT EQUATIONS
  

 PCM DIMENSIONS: MXSP=  2000, MXTS=      4320, MEMORY=        123043

 Using Gaussians for PCM contribution to MEP, params: 0.10000E+01 0.10000E-07

          ----------------
          PROPERTIES INPUT
          ----------------

     MOMENTS            FIELD           POTENTIAL          DENSITY
 IEMOM =       1   IEFLD =       0   IEPOT =       0   IEDEN =       0
 WHERE =COMASS     WHERE =NUCLEI     WHERE =NUCLEI     WHERE =NUCLEI  
 OUTPUT=BOTH       OUTPUT=BOTH       OUTPUT=BOTH       OUTPUT=BOTH    
 IEMINT=       0   IEFINT=       0                     IEDINT=       0
                                                       MORB  =       0
          EXTRAPOLATION IN EFFECT
          DIIS IN EFFECT
 ORBITAL PRINTING OPTION: NPREO=     1   470     2     1

     -------------------------------
     INTEGRAL TRANSFORMATION OPTIONS
     -------------------------------
     NWORD  =            0
     CUTOFF = 1.0E-09     MPTRAN =       0
     DIRTRF =       T     AOINTS =DUP     

          ----------------------
          INTEGRAL INPUT OPTIONS
          ----------------------
 NOPK  =       1 NORDER=       0 SCHWRZ=       T

     ------------------------------------------
     THE POINT GROUP IS C1 , NAXIS= 1, ORDER= 1
     ------------------------------------------

 -- VARIATIONAL SPACE WILL BE RESTRICTED TO PURE SPHERICAL HARMONICS ONLY --
 AFTER EXCLUDING CONTAMINANT COMBINATIONS FROM THE CARTESIAN GAUSSIAN BASIS
 SET, THE NUMBER OF SPHERICAL HARMONICS KEPT IN THE VARIATION SPACE IS  412

     DIMENSIONS OF THE SYMMETRY SUBSPACES ARE
 A   =  412

 ..... DONE SETTING UP THE RUN .....
 CPU     0: STEP CPU TIME=     0.07 TOTAL CPU TIME=          0.1 (      0.0 MIN)
 TOTAL WALL CLOCK TIME=          0.1 SECONDS, CPU UTILIZATION IS    49.30%

                    --------------------------------
                    SINGLE POINT ENERGY AND GRADIENT
                    --------------------------------

          ********************
          1 ELECTRON INTEGRALS
          ********************
 ...... END OF ONE-ELECTRON INTEGRALS ......
 CPU     0: STEP CPU TIME=     0.03 TOTAL CPU TIME=          0.1 (      0.0 MIN)
 TOTAL WALL CLOCK TIME=          0.2 SECONDS, CPU UTILIZATION IS    52.06%

          -------------
          GUESS OPTIONS
          -------------
          GUESS =HUCKEL            NORB  =       0          NORDER=       0
          MIX   =       F          PRTMO =       F          PUNMO =       F
          TOLZ  = 1.0E-08          TOLE  = 1.0E-05
          SYMDEN=       F          PURIFY=       F

 INITIAL GUESS ORBITALS GENERATED BY HUCKEL   ROUTINE.
 HUCKEL GUESS REQUIRES   1602322 WORDS.

 STATISTICS FOR GENERATION OF SYMMETRY ORBITAL -Q- MATRIX
 NUMBER OF CARTESIAN ATOMIC ORBITALS=        470
 NUMBER OF SPHERICAL CONTAMINANTS DROPPED=    58
 NUMBER OF LINEARLY DEPENDENT MOS DROPPED=     0
 TOTAL NUMBER OF MOS IN VARIATION SPACE=     412

 SYMMETRIES FOR INITIAL GUESS ORBITALS FOLLOW.   BOTH SET(S).
    34 ORBITALS ARE OCCUPIED (   10 CORE ORBITALS).
    11=A       12=A       13=A       14=A       15=A       16=A       17=A   
    18=A       19=A       20=A       21=A       22=A       23=A       24=A   
    25=A       26=A       27=A       28=A       29=A       30=A       31=A   
    32=A       33=A       34=A       35=A       36=A       37=A       38=A   
    39=A       40=A       41=A       42=A       43=A       44=A   
 ...... END OF INITIAL ORBITAL SELECTION ......
 CPU     0: STEP CPU TIME=     0.59 TOTAL CPU TIME=          0.7 (      0.0 MIN)
 TOTAL WALL CLOCK TIME=          1.2 SECONDS, CPU UTILIZATION IS    57.29%

                    ----------------------
                    AO INTEGRAL TECHNOLOGY
                    ----------------------
     S,P,L SHELL ROTATED AXIS INTEGRALS, REPROGRAMMED BY
        KAZUYA ISHIMURA (IMS) AND JOSE SIERRA (SYNSTAR).
     S,P,D,L SHELL ROTATED AXIS INTEGRALS PROGRAMMED BY
        KAZUYA ISHIMURA (INSTITUTE FOR MOLECULAR SCIENCE).
     S,P,D,F,G SHELL TO TOTAL QUARTET ANGULAR MOMENTUM SUM 5,
        ERIC PROGRAM BY GRAHAM FLETCHER (ELORET AND NASA ADVANCED
        SUPERCOMPUTING DIVISION, AMES RESEARCH CENTER).
     S,P,D,F,G,L SHELL GENERAL RYS QUADRATURE PROGRAMMED BY
        MICHEL DUPUIS (PACIFIC NORTHWEST NATIONAL LABORATORY).

          --------------------------------
          2 ELECTRON LC EXCHANGE INTEGRALS
          --------------------------------

 DIRECT SCF METHOD SKIPS INTEGRAL STORAGE ON DISK.
 DIRECT TRANSFORMATION SKIPS AO INTEGRAL STORAGE ON DISK.
  ...... END OF TWO-ELECTRON INTEGRALS .....
 CPU     0: STEP CPU TIME=     0.01 TOTAL CPU TIME=          0.7 (      0.0 MIN)
 TOTAL WALL CLOCK TIME=          1.2 SECONDS, CPU UTILIZATION IS    57.59%

          --------------------
          2 ELECTRON INTEGRALS
          --------------------

 DIRECT SCF METHOD SKIPS INTEGRAL STORAGE ON DISK.
 DIRECT TRANSFORMATION SKIPS AO INTEGRAL STORAGE ON DISK.
  ...... END OF TWO-ELECTRON INTEGRALS .....
 CPU     0: STEP CPU TIME=     0.00 TOTAL CPU TIME=          0.7 (      0.0 MIN)
 TOTAL WALL CLOCK TIME=          1.2 SECONDS, CPU UTILIZATION IS    57.59%

          -------------------------------------
          ---- POLARISABLE CONTINUUM MODEL ----
          ----      UNIVERSITY OF PISA     ----
          -------------------------------------

     ----------------------------
     INPUT FOR TESSERA DEFINITION
     ----------------------------
     NTSALL  =       240     MTHALL  =         2
     MTHAUT  =         0     AUTFRE  =    2.0000
     NTSFRZ  =        60     KEEPSM  =         0
     AREAKP  =   10.0000     BONDRY  =    1.0000
     AREATL  =    0.0100

     SPHERE     INITS       METHOD
          1       240     GEPOL-AS
          2       240     GEPOL-AS
          3       240     GEPOL-AS
          4       240     GEPOL-AS
          5       240     GEPOL-AS
          6       240     GEPOL-AS
          7       240     GEPOL-AS
          8       240     GEPOL-AS
          9       240     GEPOL-AS
         10       240     GEPOL-AS
         11       240     GEPOL-AS
         12       240     GEPOL-AS
         13       240     GEPOL-AS
         14       240     GEPOL-AS
         15       240     GEPOL-AS
         16       240     GEPOL-AS
         17       240     GEPOL-AS
         18       240     GEPOL-AS

     INPUT FOR CAVITY DEFINITION 
     ---------------------------
   ATOM               COORDINATES                RADIUS       EPS
      1     -0.0013      0.0003     -2.4961      1.8500      2.0165
      2      0.0004      1.2628     -1.8855      1.8500      2.0165
      3     -0.0022     -1.2624     -1.8858      1.8500      2.0165
      4      0.0014      1.6047     -0.5455      1.8500      2.0165
      5     -0.0019     -1.6047     -0.5459      1.8500      2.0165
      6      0.0009      0.7011      0.5469      1.8500      2.0165
      7     -0.0005     -0.7014      0.5467      1.8500      2.0165
      8     -0.0018      0.0004     -3.5786      1.2000      2.0165
      9      0.0009      2.1012     -2.5751      1.2000      2.0165
     10     -0.0034     -2.1007     -2.5757      1.2000      2.0165
     11      0.0026      2.6603     -0.3027      1.2000      2.0165
     12     -0.0028     -2.6604     -0.3034      1.2000      2.0165
     13      0.0019      1.1169      1.9256      1.8500      2.0165
     14     -0.0004     -1.1176      1.9253      1.8500      2.0165
     15      0.0030      2.1507      2.2432      1.2000      2.0165
     16     -0.0013     -2.1514      2.2426      1.2000      2.0165
     17      0.0010     -0.0004      2.7580      1.8500      2.0165
     18      0.0014     -0.0006      3.8359      1.2000      2.0165

 MEMORY USED TO GENERATE CAVITY=    768802

 DONE WITH AREA SCALING.
 CPU     0: STEP CPU TIME=     0.09 TOTAL CPU TIME=          0.8 (      0.0 MIN)
 TOTAL WALL CLOCK TIME=          1.4 SECONDS, CPU UTILIZATION IS    55.40%
 WARNING: THE DISTANCE BETWEEN TESSERAE    115 AND    566 IS 0.0154 A, LESS THAN 0.0200 A
 WARNING: THE DISTANCE BETWEEN TESSERAE    214 AND    633 IS 0.0166 A, LESS THAN 0.0200 A
 WARNING: THE DISTANCE BETWEEN TESSERAE    566 AND    633 IS 0.0112 A, LESS THAN 0.0200 A

 TOTAL NUMBER OF SPHERES=    18
 SPHERE           CENTER  (X,Y,Z) (A)               RADIUS (A)      AREA(A*A)
     1  -0.001255630   0.000256316  -2.496077518   1.850000000  12.020737612
     2   0.000409232   1.262771050  -1.885501997   1.850000000  11.807323274
     3  -0.002198310  -1.262416525  -1.885827712   1.850000000  11.807320154
     4   0.001407529   1.604714435  -0.545473869   1.850000000  11.736597682
     5  -0.001874083  -1.604711035  -0.545887474   1.850000000  11.736637819
     6   0.000930469   0.701081454   0.546899913   1.850000000   5.924030555
     7  -0.000491426  -0.701363071   0.546721968   1.850000000   5.924030861
     8  -0.001823716   0.000394911  -3.578605768   1.200000000   6.224755548
     9   0.000918704   2.101221707  -2.575110710   1.200000000   6.256021240
    10  -0.003417267  -2.100687062  -2.575654317   1.200000000   6.256020236
    11   0.002614347   2.660331374  -0.302723845   1.200000000   6.199845409
    12  -0.002798948  -2.660391390  -0.303410523   1.200000000   6.200126502
    13   0.001856467   1.116928199   1.925622347   1.850000000  13.104257890
    14  -0.000396219  -1.117555717   1.925339292   1.850000000  13.104301244
    15   0.003013264   2.150687760   2.243153997   1.200000000   6.213581861
    16  -0.001324455  -2.151394950   2.242612837   1.200000000   6.213583769
    17   0.001033987  -0.000419668   2.758011793   1.850000000  13.702719392
    18   0.001423448  -0.000558189   3.835947781   1.200000000   6.178029372

 TOTAL NUMBER OF TESSERAE=    1800
 SURFACE AREA=   160.60992042(A**2)    CAVITY VOLUME=    143.34084496 (A**3)
 CPU     0: STEP CPU TIME=     0.01 TOTAL CPU TIME=          0.8 (      0.0 MIN)
 TOTAL WALL CLOCK TIME=          1.4 SECONDS, CPU UTILIZATION IS    55.73%

          THE SOLUTE IS ENCLOSED IN ONE CAVITY
 DONE CHECKING SEPARATION.
 CPU     0: STEP CPU TIME=     0.00 TOTAL CPU TIME=          0.8 (      0.0 MIN)
 TOTAL WALL CLOCK TIME=          1.4 SECONDS, CPU UTILIZATION IS    55.73%

 ..... DONE GENERATING CAVITY .....
 CPU     0: STEP CPU TIME=     0.00 TOTAL CPU TIME=          0.8 (      0.0 MIN)
 TOTAL WALL CLOCK TIME=          1.4 SECONDS, CPU UTILIZATION IS    55.73%
 NUCLEI-NUCLEAR CHARGE POLARIZATION ADJUSTMENT TO VNN=        0.0000000000

          --------------------------
          R-USELIBXC SCF CALCULATION
          --------------------------

     NUCLEAR ENERGY =       454.3980546699
     MAXIT =   70     NPUNCH=    2
     EXTRAP=T  DAMP=F  SHIFT=F  RSTRCT=F  DIIS=T  DEM=F  SOSCF=F
         DENSITY MATRIX CONVERGENCE THRESHOLD=  2.00E-05
     COARSE -> FINE DFT GRID SWITCH THRESHOLD=  3.00E-04 (SWITCH IN $DFT)
                   HF -> DFT SWITCH THRESHOLD=  5.00E-03 (SWOFF IN $DFT)
     MEMORY REQUIRED FOR RHF ITERS=   2751862 WORDS.

 DIRECT SCF CALCULATION, SCHWRZ=T   FDIFF=F,  DIRTHR=  0.00E+00 NITDIR=10
 SCHWARZ INEQUALITY OVERHEAD:    103213 INTEGRALS, T=        0.01

     EXCHANGE FUNCTIONAL   =LIBXC     
     CORRELATION FUNCTIONAL=LIBXC     
     DFT THRESHOLD         =.192E-08
     GRID CHANGE THRESHOLD =.300E-03
 FOR AN EULER-MACLAURIN QUADRATURE USING  96 RADIAL POINTS:
 SMALLEST GAUSSIAN PRIMITIVE EXPONENT=        0.1027000000 OF TYPE -S-
 ON ATOM NUMBER   8 HAS RADIAL NORMALIZATION=  1.000000
  LARGEST GAUSSIAN PRIMITIVE EXPONENT=     8236.0000000000 OF TYPE -S-
 ON ATOM NUMBER   1 HAS RADIAL NORMALIZATION=  1.000000
 DFT IS SWITCHED OFF, PERFORMING PURE SCF UNTIL SWOFF THRESHOLD IS REACHED.

                                                                                   NONZERO     BLOCKS
 ITER EX DEM     TOTAL ENERGY        E CHANGE  DENSITY CHANGE    DIIS ERROR      INTEGRALS    SKIPPED
          * * *   INITIATING DIIS PROCEDURE   * * *
   1  0  0     -382.3678323093  -382.3678323093   2.787793427   0.273218384     2894405702   22385777
   2  1  0     -383.3516431826    -0.9838108733   0.069660917   0.068173948     2876725534   23782880
   3  2  0     -383.3983246820    -0.0466814994   0.013457983   0.029700611     2877611628   23756070
   4  3  0     -383.4075014568    -0.0091767748   0.008037399   0.007108140     2878087370   23744321
   5  4  0     -383.4083971529    -0.0008956960   0.002787111   0.002814801     2878246068   23735034
 CONVERGED TO SWOFF, SO DFT CALCULATION IS NOW SWITCHED ON.
          * * *   INITIATING DIIS PROCEDURE   * * *
   6  5  0     -385.7995158013    -2.3911186485   0.042146558   0.055734104     2812026655   23733243
   7  6  0     -385.8384574460    -0.0389416447   0.008181173   0.010916019     2813738851   23505928
   8  7  0     -385.8399760022    -0.0015185562   0.004057023   0.005788982     2813643339   23490614
   9  8  0     -385.8404269476    -0.0004509454   0.001368506   0.001220643     2813722788   23490591
  10  9  0     -385.8404456281    -0.0000186805   0.000449356   0.000585149     2813722763   23489860
  11 10  0     -385.8404505439    -0.0000049158   0.000204697   0.000268155     2813725137   23489791
  12 11  0     -385.8404512322    -0.0000006883   0.000091251   0.000120772     2813724906   23489800
  13 12  0     -385.8404513977    -0.0000001655   0.000036814   0.000064411     2813725303   23489831
  14 13  0     -385.8404514319    -0.0000000342   0.000024765   0.000023079     2813726130   23489831
  15 14  0     -385.8404514416    -0.0000000097   0.000008925   0.000008451     2813725994   23489834
  16 15  0     -385.8404514425    -0.0000000009   0.000006494   0.000006849     2813726039   23489835

          -----------------
          DENSITY CONVERGED
          -----------------
     TIME TO FORM FOCK OPERATORS=     229.7 SECONDS (      14.4 SEC/ITER)
     FOCK TIME ON FIRST ITERATION=       8.4, LAST ITERATION=      17.0
     TIME TO SOLVE SCF EQUATIONS=       3.1 SECONDS (       0.2 SEC/ITER)

 FINAL R-USELIBXC ENERGY IS     -385.8404514425 AFTER  16 ITERATIONS
 DFT EXCHANGE + CORRELATION ENERGY =       -39.6143076123
 TOTAL ELECTRON NUMBER             =        67.9997815872
  
   PCM ASC=     -0.0245065739
   GCAVP  =      0.0000000000
   GDISP  =      0.0000000000
   GREP   =      0.0000000000

          ------------
          EIGENVECTORS
          ------------

                      1          2          3          4          5
                  -10.2943   -10.2943   -10.2931   -10.2726   -10.2726
                     A          A          A          A          A   
    1  C  1  S    0.000031   0.003024   0.985462  -0.000019  -0.018390
    2  C  1  S   -0.000003  -0.000422   0.022109  -0.000004  -0.002803
    3  C  1  S   -0.000000   0.000016   0.047657   0.000002   0.000855
    4  C  1  S    0.000239   0.016742   0.025098  -0.000122  -0.026979
    5  C  1  X   -0.000000   0.000000  -0.000000  -0.000001   0.000000
    6  C  1  Y   -0.000368   0.000003   0.000000  -0.001068   0.000001
    7  C  1  Z    0.000001   0.000169  -0.000132   0.000001   0.000544
    8  C  1  X    0.000002   0.000000   0.000001   0.000007  -0.000003
    9  C  1  Y    0.002093  -0.000018   0.000000   0.006798  -0.000010
   10  C  1  Z    0.000004   0.000202  -0.000130  -0.000007  -0.005362
   11  C  1  X   -0.000005   0.000003   0.000002   0.000000  -0.000005
   12  C  1  Y   -0.004396   0.000061  -0.000000   0.000157  -0.000024
   13  C  1  Z    0.000089   0.005293   0.003552  -0.000054  -0.009034
   14  C  1 XX    0.000000   0.000039  -0.002143   0.000000   0.000557
   15  C  1 YY   -0.000004  -0.000395   0.001019  -0.000000  -0.000307
   16  C  1 ZZ    0.000003   0.000356   0.001124  -0.000000  -0.000250
   17  C  1 XY   -0.000000  -0.000001   0.000004   0.000000  -0.000001
   18  C  1 XZ   -0.000000   0.000000   0.000002   0.000000  -0.000001
   19  C  1 YZ   -0.000295   0.000003  -0.000000   0.000418  -0.000001
   20  C  1 XX   -0.000010  -0.000823  -0.002774   0.000007   0.002157
   21  C  1 YY    0.000071   0.007406   0.003773  -0.000020  -0.010739
   22  C  1 ZZ   -0.000060  -0.006583  -0.000999   0.000013   0.008582
   23  C  1 XY    0.000003   0.000010   0.000008   0.000005  -0.000015
   24  C  1 XZ    0.000006  -0.000004   0.000001   0.000009   0.000004
   25  C  1 YZ    0.005406  -0.000048   0.000001   0.008508  -0.000012
   26  C  1 XXX  -0.000001  -0.000000   0.000000  -0.000003   0.000001
   27  C  1 YYY   0.000213  -0.000002  -0.000001   0.000777  -0.000000
   28  C  1 ZZZ  -0.000002  -0.000227  -0.002107   0.000001   0.001109
   29  C  1 XXY  -0.000318   0.000003  -0.000000  -0.001095   0.000001
   30  C  1 XXZ  -0.000000  -0.000037   0.000458   0.000001   0.000691
   31  C  1 YYX   0.000001   0.000000   0.000001   0.000003  -0.000001
   32  C  1 YYZ   0.000003   0.000342   0.002369  -0.000003  -0.002178
   33  C  1 ZZX   0.000000  -0.000000  -0.000002   0.000000   0.000000
   34  C  1 ZZY   0.000033   0.000000   0.000001   0.000052  -0.000001
   35  C  1 XYZ   0.000000   0.000000   0.000002   0.000001  -0.000003
   36  C  2  S   -0.009762   0.007213   0.010844  -0.696299   0.697548
   37  C  2  S   -0.000732  -0.002909  -0.001591  -0.016040   0.015905
   38  C  2  S   -0.001569   0.001223   0.001807  -0.033894   0.033715
   39  C  2  S    0.003957  -0.015289  -0.016341  -0.010096   0.029815
   40  C  2  X   -0.000001   0.000000  -0.000001  -0.000000  -0.000000
   41  C  2  Y   -0.000198   0.000095  -0.000818  -0.000164  -0.000174
   42  C  2  Z   -0.000606   0.000610  -0.000400  -0.000036  -0.000114
   43  C  2  X    0.000006   0.000000   0.000008   0.000000   0.000002
   44  C  2  Y    0.003002   0.002065   0.006687  -0.000353   0.001329
   45  C  2  Z    0.005365  -0.004584   0.002187   0.000017   0.001672
   46  C  2  X   -0.000003   0.000004   0.000004  -0.000002  -0.000005
   47  C  2  Y   -0.001564   0.005288   0.004588  -0.001248  -0.006016
   48  C  2  Z   -0.001814  -0.003932  -0.002731  -0.001596   0.003429
   49  C  2 XX   -0.000194   0.000306   0.000325   0.001567  -0.001546
   50  C  2 YY   -0.000166   0.000025  -0.000413  -0.000549   0.000843
   51  C  2 ZZ    0.000360  -0.000330   0.000088  -0.001018   0.000703
   52  C  2 XY   -0.000000  -0.000000  -0.000001  -0.000003   0.000003
   53  C  2 XZ    0.000000  -0.000001  -0.000000  -0.000002   0.000001
   54  C  2 YZ   -0.000105  -0.000177  -0.000107  -0.000190  -0.000095
   55  C  2 XX   -0.001143   0.001311   0.001529   0.001576  -0.002642
   56  C  2 YY   -0.004104   0.004430  -0.004956  -0.002796  -0.002185
   57  C  2 ZZ    0.005248  -0.005741   0.003427   0.001220   0.004827
   58  C  2 XY   -0.000002   0.000000  -0.000013  -0.000004   0.000003
   59  C  2 XZ    0.000007  -0.000011  -0.000009   0.000002   0.000010
   60  C  2 YZ    0.003171  -0.006438  -0.009465   0.001954   0.005491
   61  C  2 XXX  -0.000001   0.000001  -0.000003   0.000000  -0.000001
   62  C  2 YYY  -0.000560   0.000360   0.000741   0.000519  -0.000504
   63  C  2 ZZZ   0.000870  -0.000990  -0.000784  -0.000908   0.001332
   64  C  2 XXY  -0.000135   0.000088  -0.000915   0.000211  -0.000317
   65  C  2 XXZ  -0.000684   0.000764  -0.000333  -0.000256   0.000027
   66  C  2 YYX  -0.000001   0.000001   0.000004   0.000001  -0.000001
   67  C  2 YYZ  -0.000483   0.000565   0.001385   0.001474  -0.001815
   68  C  2 ZZX   0.000002  -0.000002  -0.000000  -0.000001   0.000002
   69  C  2 ZZY   0.000887  -0.000571  -0.000079  -0.000907   0.000993
   70  C  2 XYZ   0.000001  -0.000001   0.000003   0.000001  -0.000001
   71  C  3  S    0.009888   0.007036   0.010843   0.697738   0.696110
   72  C  3  S    0.000677  -0.002921  -0.001592   0.016075   0.015871
   73  C  3  S    0.001592   0.001194   0.001807   0.033962   0.033646
   74  C  3  S   -0.004396  -0.015178  -0.016341   0.010327   0.029751
   75  C  3  X    0.000000   0.000000   0.000001  -0.000000   0.000000
   76  C  3  Y   -0.000200  -0.000091   0.000818  -0.000164   0.000175
   77  C  3  Z    0.000617   0.000598  -0.000400   0.000036  -0.000114
   78  C  3  X    0.000000  -0.000004  -0.000006  -0.000001  -0.000001
   79  C  3  Y    0.002963  -0.002120  -0.006688  -0.000350  -0.001330
   80  C  3  Z   -0.005452  -0.004481   0.002186  -0.000012   0.001670
   81  C  3  X   -0.000001  -0.000007  -0.000006  -0.000000   0.000008
   82  C  3  Y   -0.001728  -0.005211  -0.004587  -0.001170   0.005985
   83  C  3  Z    0.001694  -0.003982  -0.002733   0.001649   0.003447
   84  C  3 XX    0.000199   0.000302   0.000325  -0.001570  -0.001543
   85  C  3 YY    0.000167   0.000021  -0.000413   0.000551   0.000842
   86  C  3 ZZ   -0.000366  -0.000323   0.000088   0.001019   0.000701
   87  C  3 XY   -0.000000  -0.000000  -0.000001   0.000002   0.000003
   88  C  3 XZ   -0.000000  -0.000000  -0.000000   0.000001   0.000001
   89  C  3 YZ   -0.000102   0.000179   0.000107  -0.000190   0.000095
   90  C  3 XX    0.001173   0.001288   0.001529  -0.001589  -0.002636
   91  C  3 YY    0.004181   0.004353  -0.004960   0.002792  -0.002189
   92  C  3 ZZ   -0.005354  -0.005641   0.003431  -0.001203   0.004826
   93  C  3 XY    0.000005   0.000007  -0.000003   0.000006  -0.000002
   94  C  3 XZ   -0.000000   0.000002   0.000011   0.000002  -0.000001
   95  C  3 YZ    0.003299   0.006380   0.009463   0.001934  -0.005495
   96  C  3 XXX   0.000000   0.000001   0.000002   0.000001   0.000001
   97  C  3 YYY  -0.000567  -0.000350  -0.000742   0.000521   0.000504
   98  C  3 ZZZ  -0.000888  -0.000974  -0.000784   0.000911   0.001329
   99  C  3 XXY  -0.000137  -0.000086   0.000915   0.000212   0.000317
  100  C  3 XXZ   0.000698   0.000751  -0.000332   0.000256   0.000027
  101  C  3 YYX  -0.000000  -0.000000  -0.000002  -0.000001  -0.000001
  102  C  3 YYZ   0.000493   0.000555   0.001385  -0.001478  -0.001810
  103  C  3 ZZX  -0.000000  -0.000001  -0.000000  -0.000001  -0.000000
  104  C  3 ZZY   0.000898   0.000555   0.000080  -0.000911  -0.000993
  105  C  3 XYZ   0.000000   0.000000   0.000001  -0.000003  -0.000003
  106  C  4  S   -0.691880   0.702745  -0.002658   0.009567  -0.010351
  107  C  4  S   -0.018187   0.015063  -0.000398  -0.000258  -0.003100
  108  C  4  S   -0.033954   0.033897  -0.000243  -0.000726   0.000356
  109  C  4  S   -0.002093   0.022623   0.013815   0.010652  -0.024545
  110  C  4  X   -0.000000   0.000000  -0.000000   0.000000  -0.000000
  111  C  4  Y   -0.000167   0.000140  -0.000082   0.000098  -0.000162
  112  C  4  Z    0.000044  -0.000037  -0.000312   0.000646  -0.000688
  113  C  4  X    0.000003  -0.000000   0.000001  -0.000002   0.000007
  114  C  4  Y    0.003101   0.000416  -0.000163   0.000042   0.002689
  115  C  4  Z   -0.001530  -0.001540   0.001701  -0.003839   0.008204
  116  C  4  X   -0.000004  -0.000002  -0.000004  -0.000001   0.000010
  117  C  4  Y   -0.002948  -0.002797  -0.003107  -0.001006   0.008661
  118  C  4  Z   -0.002940   0.001688  -0.000705  -0.000643   0.000809
  119  C  4 XX    0.001587  -0.001483   0.000027  -0.000274   0.000370
  120  C  4 YY   -0.000709   0.000792   0.000191   0.000084   0.000066
  121  C  4 ZZ   -0.000878   0.000691  -0.000218   0.000189  -0.000436
  122  C  4 XY   -0.000003   0.000003   0.000000   0.000001  -0.000001
  123  C  4 XZ   -0.000001   0.000001   0.000000   0.000000  -0.000001
  124  C  4 YZ    0.000004   0.000177   0.000302   0.000205  -0.000308
  125  C  4 XX    0.001262  -0.002247  -0.000666  -0.001340   0.001484
  126  C  4 YY    0.000770   0.000395  -0.002922  -0.003732   0.006926
  127  C  4 ZZ   -0.002032   0.001852   0.003587   0.005072  -0.008410
  128  C  4 XY    0.000000   0.000003  -0.000005  -0.000001   0.000006
  129  C  4 XZ    0.000000   0.000001  -0.000004   0.000007  -0.000007
  130  C  4 YZ    0.002040  -0.000647  -0.006037   0.003439  -0.001786
  131  C  4 XXX   0.000001  -0.000001  -0.000000   0.000001  -0.000001
  132  C  4 YYY  -0.001093   0.001119   0.000101   0.000524  -0.000444
  133  C  4 ZZZ   0.000815  -0.000844   0.000017  -0.000894   0.000962
  134  C  4 XXY   0.000302  -0.000277   0.000085   0.000192  -0.000269
  135  C  4 XXZ  -0.000074  -0.000092  -0.000251   0.000682  -0.000650
  136  C  4 YYX  -0.000003   0.000003   0.000000   0.000001  -0.000000
  137  C  4 YYZ  -0.001019   0.001225   0.000228   0.000518  -0.000641
  138  C  4 ZZX   0.000002  -0.000002  -0.000000  -0.000002   0.000002
  139  C  4 ZZY   0.001165  -0.001224  -0.000220  -0.000895   0.000865
  140  C  4 XYZ  -0.000001   0.000001   0.000000  -0.000001   0.000001
  141  C  5  S    0.704452   0.690142  -0.002662  -0.009589  -0.010330
  142  C  5  S    0.018459   0.014731  -0.000398   0.000250  -0.003100
  143  C  5  S    0.034558   0.033280  -0.000244   0.000728   0.000355
  144  C  5  S    0.002702   0.022431   0.013816  -0.010857  -0.024495
  145  C  5  X   -0.000000  -0.000000  -0.000000  -0.000000  -0.000000
  146  C  5  Y   -0.000170  -0.000136   0.000082   0.000099   0.000162
  147  C  5  Z   -0.000044  -0.000036  -0.000312  -0.000647  -0.000686
  148  C  5  X    0.000004  -0.000001   0.000001   0.000002   0.000001
  149  C  5  Y    0.003101  -0.000477   0.000162   0.000033  -0.002690
  150  C  5  Z    0.001503  -0.001570   0.001701   0.003860   0.008194
  151  C  5  X   -0.000002   0.000003   0.000003  -0.000001  -0.000008
  152  C  5  Y   -0.002813   0.002783   0.003107  -0.001088  -0.008635
  153  C  5  Z    0.002978   0.001571  -0.000704   0.000652   0.000825
  154  C  5 XX   -0.001613  -0.001454   0.000027   0.000274   0.000370
  155  C  5 YY    0.000723   0.000780   0.000191  -0.000084   0.000066
  156  C  5 ZZ    0.000890   0.000675  -0.000218  -0.000190  -0.000435
  157  C  5 XY    0.000003   0.000002   0.000000  -0.000000  -0.000000
  158  C  5 XZ    0.000001   0.000001  -0.000000  -0.000000  -0.000000
  159  C  5 YZ    0.000001  -0.000178  -0.000301   0.000205   0.000308
  160  C  5 XX   -0.001311  -0.002218  -0.000666   0.001349   0.001480
  161  C  5 YY   -0.000768   0.000408  -0.002924   0.003746   0.006917
  162  C  5 ZZ    0.002080   0.001810   0.003590  -0.005096  -0.008397
  163  C  5 XY    0.000001   0.000003   0.000000   0.000004   0.000007
  164  C  5 XZ    0.000004   0.000003   0.000008  -0.000000  -0.000004
  165  C  5 YZ    0.002057   0.000608   0.006035   0.003443   0.001784
  166  C  5 XXX   0.000001   0.000001  -0.000000  -0.000000  -0.000000
  167  C  5 YYY  -0.001114  -0.001099  -0.000101   0.000526   0.000443
  168  C  5 ZZZ  -0.000830  -0.000828   0.000017   0.000896   0.000959
  169  C  5 XXY   0.000306   0.000272  -0.000085   0.000193   0.000269
  170  C  5 XXZ   0.000072  -0.000093  -0.000251  -0.000683  -0.000648
  171  C  5 YYX  -0.000002  -0.000001   0.000000   0.000000  -0.000000
  172  C  5 YYZ   0.001041   0.001204   0.000228  -0.000519  -0.000639
  173  C  5 ZZX   0.000001   0.000001   0.000000   0.000000   0.000000
  174  C  5 ZZY   0.001189   0.001202   0.000220  -0.000898  -0.000864
  175  C  5 XYZ   0.000002   0.000002   0.000001  -0.000000  -0.000001
  176  C  6  S   -0.005890   0.005704  -0.001634  -0.001723  -0.004516
  177  C  6  S    0.000301  -0.001118  -0.002137  -0.001485  -0.001886
  178  C  6  S   -0.001211   0.001443  -0.000009  -0.000118  -0.000355
  179  C  6  S    0.011018  -0.019013  -0.009871  -0.003866   0.010473
  180  C  6  X   -0.000001  -0.000000   0.000000  -0.000000  -0.000000
  181  C  6  Y   -0.000632   0.000201   0.000066  -0.000180   0.000067
  182  C  6  Z    0.000356  -0.000572  -0.000065   0.000145  -0.000203
  183  C  6  X    0.000004  -0.000000  -0.000002   0.000003   0.000003
  184  C  6  Y    0.005049  -0.001954  -0.002760   0.003470   0.001875
  185  C  6  Z   -0.002244   0.004531   0.002699  -0.001136   0.001565
  186  C  6  X    0.000005  -0.000005  -0.000003  -0.000003   0.000003
  187  C  6  Y    0.000595  -0.004624  -0.003315  -0.003329   0.006035
  188  C  6  Z    0.012033  -0.000413   0.001586   0.001255  -0.007666
  189  C  6 XX   -0.000089   0.000109   0.000037   0.000030   0.000041
  190  C  6 YY    0.000040  -0.000069   0.000008   0.000059  -0.000386
  191  C  6 ZZ    0.000050  -0.000040  -0.000045  -0.000089   0.000345
  192  C  6 XY    0.000000  -0.000000   0.000000   0.000000  -0.000001
  193  C  6 XZ    0.000000   0.000000   0.000000   0.000000   0.000000
  194  C  6 YZ    0.000359   0.000192   0.000192   0.000087  -0.000008
  195  C  6 XX   -0.001340   0.001900   0.000639   0.000603  -0.000305
  196  C  6 YY   -0.002002   0.000124  -0.001397  -0.004522   0.003593
  197  C  6 ZZ    0.003342  -0.002024   0.000758   0.003919  -0.003288
  198  C  6 XY   -0.000007  -0.000001  -0.000002  -0.000007   0.000005
  199  C  6 XZ   -0.000013   0.000002   0.000002   0.000000  -0.000001
  200  C  6 YZ   -0.015348   0.004081   0.001481  -0.001328   0.000105
  201  C  6 XXX  -0.000001   0.000000  -0.000000  -0.000000   0.000000
  202  C  6 YYY  -0.000114   0.000340   0.000021   0.000237  -0.000193
  203  C  6 ZZZ  -0.000289  -0.000140  -0.000142  -0.000106   0.000165
  204  C  6 XXY  -0.000562   0.000327  -0.000014  -0.000105   0.000129
  205  C  6 XXZ   0.000553  -0.000427   0.000010   0.000009  -0.000014
  206  C  6 YYX   0.000001   0.000000   0.000000   0.000001  -0.000001
  207  C  6 YYZ  -0.000165   0.000615   0.000180   0.000133  -0.000208
  208  C  6 ZZX   0.000000  -0.000001  -0.000000  -0.000000   0.000000
  209  C  6 ZZY   0.000715  -0.000784  -0.000014  -0.000212   0.000130
  210  C  6 XYZ  -0.000000   0.000001   0.000000   0.000000  -0.000000
  211  C  7  S    0.005992   0.005597  -0.001634   0.001714  -0.004519
  212  C  7  S   -0.000321  -0.001111  -0.002137   0.001481  -0.001890
  213  C  7  S    0.001238   0.001420  -0.000010   0.000117  -0.000355
  214  C  7  S   -0.011482  -0.018809  -0.009868   0.003964   0.010447
  215  C  7  X   -0.000001  -0.000000  -0.000000  -0.000000  -0.000000
  216  C  7  Y   -0.000636  -0.000189  -0.000066  -0.000180  -0.000067
  217  C  7  Z   -0.000368  -0.000565  -0.000065  -0.000145  -0.000202
  218  C  7  X    0.000006   0.000004   0.000004   0.000004  -0.000001
  219  C  7  Y    0.005092   0.001853   0.002759   0.003462  -0.001882
  220  C  7  Z    0.002337   0.004486   0.002700   0.001136   0.001563
  221  C  7  X   -0.000004   0.000005   0.000004  -0.000004  -0.000009
  222  C  7  Y    0.000730   0.004502   0.003317  -0.003370  -0.006007
  223  C  7  Z   -0.011974  -0.000327   0.001587  -0.001314  -0.007632
  224  C  7 XX    0.000091   0.000108   0.000037  -0.000030   0.000041
  225  C  7 YY   -0.000041  -0.000068   0.000008  -0.000060  -0.000386
  226  C  7 ZZ   -0.000051  -0.000039  -0.000045   0.000090   0.000345
  227  C  7 XY   -0.000000  -0.000000  -0.000000   0.000000  -0.000000
  228  C  7 XZ    0.000000  -0.000000  -0.000000   0.000000   0.000000
  229  C  7 YZ    0.000356  -0.000198  -0.000192   0.000087   0.000007
  230  C  7 XX    0.001378   0.001874   0.000639  -0.000606  -0.000303
  231  C  7 YY    0.002006   0.000088  -0.001396   0.004533   0.003583
  232  C  7 ZZ   -0.003385  -0.001961   0.000757  -0.003927  -0.003280
  233  C  7 XY   -0.000005  -0.000004  -0.000003   0.000005   0.000004
  234  C  7 XZ   -0.000018  -0.000006  -0.000001  -0.000003  -0.000002
  235  C  7 YZ   -0.015426  -0.003797  -0.001482  -0.001323  -0.000100
  236  C  7 XXX  -0.000002  -0.000001   0.000000  -0.000000  -0.000000
  237  C  7 YYY  -0.000120  -0.000339  -0.000021   0.000237   0.000193
  238  C  7 ZZZ   0.000287  -0.000145  -0.000142   0.000107   0.000165
  239  C  7 XXY  -0.000568  -0.000316   0.000014  -0.000105  -0.000129
  240  C  7 XXZ  -0.000561  -0.000416   0.000010  -0.000009  -0.000014
  241  C  7 YYX   0.000001   0.000000   0.000000   0.000000   0.000000
  242  C  7 YYZ   0.000176   0.000611   0.000180  -0.000134  -0.000207
  243  C  7 ZZX   0.000001   0.000001  -0.000000  -0.000000  -0.000000
  244  C  7 ZZY   0.000729   0.000771   0.000014  -0.000213  -0.000130
  245  C  7 XYZ   0.000002   0.000002   0.000000  -0.000000  -0.000000
  246  H  8  S   -0.000000  -0.000019   0.000021   0.000000   0.000030
  247  H  8  S    0.000050   0.005344  -0.008497  -0.000011  -0.008546
  248  H  8  S    0.000014   0.000416  -0.001468  -0.000012  -0.001287
  249  H  8  X    0.000000  -0.000000  -0.000001   0.000000   0.000000
  250  H  8  Y    0.000039  -0.000000   0.000000   0.000069  -0.000000
  251  H  8  Z   -0.000001  -0.000126  -0.001446   0.000000   0.000161
  252  H  8  X    0.000002   0.000001  -0.000003   0.000003  -0.000002
  253  H  8  Y    0.001563  -0.000016   0.000001   0.002689  -0.000001
  254  H  8  Z    0.000018   0.001971  -0.005165  -0.000003  -0.003221
  255  H  8 XX    0.000000   0.000040   0.000905  -0.000000  -0.000052
  256  H  8 YY   -0.000000  -0.000035   0.000981   0.000000   0.000072
  257  H  8 ZZ    0.000000  -0.000005  -0.001886   0.000000  -0.000020
  258  H  8 XY    0.000000  -0.000000   0.000000   0.000000   0.000000
  259  H  8 XZ    0.000000  -0.000000  -0.000002   0.000001   0.000000
  260  H  8 YZ    0.000161  -0.000002   0.000000   0.000493  -0.000000
  261  H  9  S   -0.000037  -0.000019  -0.000006  -0.000021  -0.000010
  262  H  9  S    0.002608  -0.006607  -0.006570   0.008948  -0.003361
  263  H  9  S   -0.000281  -0.001092  -0.000598   0.001196  -0.000578
  264  H  9  X    0.000000  -0.000000   0.000000  -0.000000   0.000000
  265  H  9  Y    0.000111  -0.000009   0.000001  -0.000746   0.000839
  266  H  9  Z   -0.000025  -0.000040   0.000100   0.000609  -0.000676
  267  H  9  X    0.000001  -0.000000   0.000003  -0.000002   0.000002
  268  H  9  Y    0.000076   0.000994   0.003225  -0.003265   0.002531
  269  H  9  Z    0.001768  -0.002735  -0.000090   0.003484  -0.001182
  270  H  9 XX    0.000023  -0.000021  -0.000027  -0.000613   0.000654
  271  H  9 YY   -0.000255   0.000203  -0.000322   0.000468  -0.000557
  272  H  9 ZZ    0.000232  -0.000182   0.000349   0.000145  -0.000097
  273  H  9 XY   -0.000000   0.000000  -0.000000   0.000001  -0.000001
  274  H  9 XZ    0.000000   0.000000   0.000000  -0.000001   0.000001
  275  H  9 YZ   -0.000054   0.000212   0.000027  -0.001181   0.001132
  276  H 10  S    0.000037  -0.000020  -0.000006   0.000021  -0.000010
  277  H 10  S   -0.002734  -0.006556  -0.006570  -0.008950  -0.003342
  278  H 10  S    0.000243  -0.001091  -0.000598  -0.001179  -0.000580
  279  H 10  X    0.000000  -0.000000   0.000000  -0.000001  -0.000001
  280  H 10  Y    0.000111   0.000007  -0.000001  -0.000747  -0.000837
  281  H 10  Z    0.000024  -0.000040   0.000100  -0.000611  -0.000675
  282  H 10  X   -0.000001  -0.000002  -0.000003  -0.000005  -0.000003
  283  H 10  Y    0.000058  -0.000994  -0.003225  -0.003270  -0.002523
  284  H 10  Z   -0.001817  -0.002702  -0.000090  -0.003487  -0.001177
  285  H 10 XX   -0.000024  -0.000021  -0.000027   0.000615   0.000653
  286  H 10 YY    0.000259   0.000199  -0.000322  -0.000469  -0.000555
  287  H 10 ZZ   -0.000235  -0.000178   0.000349  -0.000146  -0.000098
  288  H 10 XY    0.000000   0.000000  -0.000000  -0.000002  -0.000002
  289  H 10 XZ   -0.000000  -0.000000   0.000000  -0.000002  -0.000002
  290  H 10 YZ   -0.000058  -0.000211  -0.000028  -0.001183  -0.001129
  291  H 11  S   -0.000099   0.000014   0.000021  -0.000036  -0.000023
  292  H 11  S    0.003916  -0.007103   0.003508   0.000994  -0.005722
  293  H 11  S    0.002469  -0.001471  -0.000046  -0.000282  -0.001527
  294  H 11  X   -0.000001   0.000001   0.000000   0.000000  -0.000000
  295  H 11  Y   -0.000903   0.000998   0.000099   0.000152  -0.000047
  296  H 11  Z   -0.000227   0.000213   0.000038   0.000033  -0.000006
  297  H 11  X   -0.000003   0.000004  -0.000001  -0.000001   0.000003
  298  H 11  Y   -0.002469   0.003798  -0.001497  -0.000079   0.001698
  299  H 11  Z   -0.000706   0.001042   0.000778  -0.001704   0.001931
  300  H 11 XX   -0.000586   0.000609   0.000051   0.000032  -0.000054
  301  H 11 YY    0.001115  -0.001240   0.000009  -0.000174   0.000053
  302  H 11 ZZ   -0.000529   0.000631  -0.000060   0.000142   0.000001
  303  H 11 XY    0.000002  -0.000002  -0.000000  -0.000000   0.000000
  304  H 11 XZ    0.000001  -0.000001  -0.000000   0.000000  -0.000000
  305  H 11 YZ    0.000486  -0.000522  -0.000092   0.000199  -0.000260
  306  H 12  S    0.000099   0.000012   0.000021   0.000036  -0.000023
  307  H 12  S   -0.004038  -0.007029   0.003508  -0.001008  -0.005718
  308  H 12  S   -0.002475  -0.001440  -0.000046   0.000265  -0.001522
  309  H 12  X   -0.000001  -0.000001  -0.000000   0.000000   0.000000
  310  H 12  Y   -0.000921  -0.000982  -0.000099   0.000152   0.000047
  311  H 12  Z    0.000230   0.000209   0.000038  -0.000033  -0.000006
  312  H 12  X   -0.000002  -0.000003   0.000002   0.000001  -0.000001
  313  H 12  Y   -0.002537  -0.003752   0.001496  -0.000082  -0.001699
  314  H 12  Z    0.000723   0.001031   0.000778   0.001707   0.001926
  315  H 12 XX    0.000598   0.000598   0.000051  -0.000032  -0.000054
[...]
            447  C 17 YYY     0.00104     0.17404
            448  C 17 ZZZ     0.00044     0.17806
            449  C 17 XXY     0.00138     0.06233
            450  C 17 XXZ     0.00274     0.05907
            451  C 17 YYX     0.00169     0.06804
            452  C 17 YYZ     0.00067     0.09007
            453  C 17 ZZX     0.00000     0.05710
            454  C 17 ZZY     0.00000     0.10050
            455  C 17 XYZ     0.00000     0.00613
            456  H 18  S      0.27395     0.20409
            457  H 18  S      0.41784     0.25359
            458  H 18  S      0.09833     0.14007
            459  H 18  X      0.00109     0.00152
            460  H 18  Y      0.00101     0.00101
            461  H 18  Z      0.00727     0.00986
            462  H 18  X      0.00847     0.02781
            463  H 18  Y      0.00830     0.02340
            464  H 18  Z     -0.00407     0.04353
            465  H 18 XX      0.00061     0.07069
            466  H 18 YY      0.00002     0.06823
            467  H 18 ZZ      0.00002     0.12291
            468  H 18 XY      0.00058     0.00005
            469  H 18 XZ      0.00116     0.00400
            470  H 18 YZ      0.00000     0.00413

          ----- MULLIKEN ATOMIC OVERLAP POPULATIONS -----
          (OFF-DIAGONAL ELEMENTS NEED TO BE MULTIPLIED BY 2)

             1           2           3           4           5

    1    4.8936318
    2    0.4618995   5.0207211
    3    0.4629250  -0.0575403   5.0187912
    4   -0.0370332   0.4689357  -0.0057215   4.8964328
    5   -0.0372494  -0.0057135   0.4696415  -0.0002770   4.8967501
    6   -0.0064124  -0.0547052  -0.0043971   0.4287210  -0.0160597
    7   -0.0063392  -0.0043216  -0.0546906  -0.0162843   0.4286365
    8    0.4383793  -0.0438815  -0.0438886   0.0058597   0.0058830
    9   -0.0481714   0.4415437   0.0063842  -0.0473308  -0.0007960
   10   -0.0483326   0.0064416   0.4417233  -0.0008087  -0.0474993
   11    0.0052275  -0.0392490  -0.0003296   0.4237662  -0.0001256
   12    0.0052376  -0.0003449  -0.0393395  -0.0001062   0.4236986
   13   -0.0005757   0.0022662  -0.0000244  -0.0506809   0.0088963
   14   -0.0005601  -0.0000337   0.0022139   0.0088649  -0.0502953
   15    0.0000270   0.0001878  -0.0000123   0.0040083  -0.0002231
   16    0.0000268  -0.0000122   0.0001884  -0.0002235   0.0040012
   17    0.0002573  -0.0004320  -0.0004295   0.0024999   0.0024005
   18    0.0000001   0.0000108   0.0000108  -0.0002394  -0.0002381

             6           7           8           9          10

    6    4.9269286
    7    0.4162341   4.9298773
    8   -0.0004592  -0.0004716   0.4821306
    9    0.0074727   0.0000970  -0.0081295   0.5005570
   10    0.0000984   0.0075030  -0.0081577  -0.0001907   0.5006833
   11   -0.0386887   0.0068362  -0.0001805  -0.0077649   0.0000128
   12    0.0068278  -0.0385575  -0.0001791   0.0000127  -0.0077783
   13    0.5025061  -0.0921079   0.0000269  -0.0003333   0.0000421
   14   -0.0921595   0.5021002   0.0000270   0.0000418  -0.0003333
   15   -0.0475542   0.0059251  -0.0000000  -0.0000073  -0.0000001
   16    0.0058991  -0.0475656  -0.0000000  -0.0000001  -0.0000071
   17   -0.0866773  -0.0871049  -0.0000039   0.0000088   0.0000086
   18    0.0057512   0.0058031   0.0000000  -0.0000003  -0.0000003

            11          12          13          14          15

   11    0.4758802
   12    0.0000167   0.4758618
   13   -0.0026393  -0.0003737   5.2095638
   14   -0.0003705  -0.0026180  -0.1429978   5.2084207
   15    0.0033615   0.0000111   0.4084353   0.0070435   0.4819556
   16    0.0000112   0.0033567   0.0070727   0.4084255  -0.0002398
   17    0.0004060   0.0004072   0.5069130   0.5078029  -0.0347390
   18   -0.0000285  -0.0000284  -0.0392973  -0.0393360  -0.0029097

            16          17          18

   16    0.4819673
   17   -0.0347581   5.0004104
   18   -0.0029154   0.4141138   0.4738713

          TOTAL MULLIKEN AND LOWDIN ATOMIC POPULATIONS
       ATOM         MULL.POP.    CHARGE          LOW.POP.     CHARGE
    1 C             6.082938   -0.082938         5.967138    0.032862
    2 C             6.195772   -0.195772         6.056245   -0.056245
    3 C             6.195505   -0.195505         6.056246   -0.056246
    4 C             6.080383   -0.080383         5.944514    0.055486
    5 C             6.081431   -0.081431         5.944511    0.055489
    6 C             5.953326    0.046674         6.053591   -0.053591
    7 C             5.955569    0.044431         6.053603   -0.053603
    8 H             0.826955    0.173045         0.965900    0.034100
    9 H             0.843394    0.156606         0.960541    0.039459
   10 H             0.843405    0.156595         0.960539    0.039461
   11 H             0.826142    0.173858         0.958281    0.041719
   12 H             0.826105    0.173895         0.958288    0.041712
   13 C             6.316692   -0.316692         6.074240   -0.074240
   14 C             6.316236   -0.316236         6.074230   -0.074230
   15 H             0.825270    0.174730         0.984925    0.015075
   16 H             0.825227    0.174773         0.984932    0.015068
   17 C             6.191084   -0.191084         6.027398   -0.027398
   18 H             0.814568    0.185432         0.974876    0.025124

          MULLIKEN SPHERICAL HARMONIC POPULATIONS
       ATOM           S       P       D      F      G      H      I    TOTAL
    1 C             3.24    2.76    0.08   0.01   0.00   0.00   0.00    6.08
    2 C             3.25    2.87    0.07   0.01   0.00   0.00   0.00    6.20
    3 C             3.25    2.87    0.07   0.01   0.00   0.00   0.00    6.20
    4 C             3.22    2.76    0.09   0.01   0.00   0.00   0.00    6.08
    5 C             3.22    2.76    0.09   0.01   0.00   0.00   0.00    6.08
    6 C             3.07    2.78    0.09   0.01   0.00   0.00   0.00    5.95
    7 C             3.07    2.78    0.09   0.01   0.00   0.00   0.00    5.96
    8 H             0.80    0.03    0.00   0.00   0.00   0.00   0.00    0.83
    9 H             0.81    0.03    0.00   0.00   0.00   0.00   0.00    0.84
   10 H             0.81    0.03    0.00   0.00   0.00   0.00   0.00    0.84
   11 H             0.80    0.03    0.00   0.00   0.00   0.00   0.00    0.83
   12 H             0.80    0.03    0.00   0.00   0.00   0.00   0.00    0.83
   13 C             3.32    2.91    0.08   0.01   0.00   0.00   0.00    6.32
   14 C             3.32    2.91    0.08   0.01   0.00   0.00   0.00    6.32
   15 H             0.80    0.02    0.00   0.00   0.00   0.00   0.00    0.83
   16 H             0.80    0.02    0.00   0.00   0.00   0.00   0.00    0.83
   17 C             3.29    2.80    0.09   0.01   0.00   0.00   0.00    6.19
   18 H             0.79    0.02    0.00   0.00   0.00   0.00   0.00    0.81

          -------------------------------
          BOND ORDER AND VALENCE ANALYSIS     BOND ORDER THRESHOLD=0.050
          -------------------------------

                   BOND                       BOND                       BOND
  ATOM PAIR DIST  ORDER      ATOM PAIR DIST  ORDER      ATOM PAIR DIST  ORDER
    1   2  1.402  1.331        1   3  1.402  1.332        1   8  1.083  0.964
    2   4  1.383  1.345        2   9  1.086  0.974        2  13  3.814  0.053
    3   5  1.383  1.346        3  10  1.086  0.974        3  14  3.814  0.053
    4   6  1.418  1.293        4   7  2.552  0.070        4  11  1.083  0.953
    5   6  2.552  0.070        5   7  1.418  1.293        5  12  1.083  0.953
    6   7  1.402  1.122        6  13  1.440  1.293        7  14  1.440  1.293
   13  15  1.081  0.947       13  17  1.393  1.372       14  16  1.081  0.947
   14  17  1.393  1.372       17  18  1.078  0.943

                       TOTAL       BONDED        FREE
      ATOM            VALENCE     VALENCE     VALENCE
    1 C                 3.825       3.825      -0.000
    2 C                 3.811       3.811      -0.000
    3 C                 3.812       3.812       0.000
    4 C                 3.854       3.854      -0.000
    5 C                 3.855       3.855      -0.000
    6 C                 3.884       3.884       0.000
    7 C                 3.884       3.884       0.000
    8 H                 0.975       0.975      -0.000
    9 H                 0.982       0.982      -0.000
   10 H                 0.982       0.982      -0.000
   11 H                 0.978       0.978      -0.000
   12 H                 0.978       0.978      -0.000
   13 C                 3.777       3.777      -0.000
   14 C                 3.777       3.777      -0.000
   15 H                 0.976       0.976      -0.000
   16 H                 0.976       0.976      -0.000
   17 C                 3.797       3.797      -0.000
   18 H                 0.966       0.966      -0.000

    **** A SOLVENT MODEL IS IN USE IN THIS RUN ****
 ELECTRICAL PROPERTIES (MOMENTS, DENSITY, FIELD/GRADIENT, AND/OR POTENTIAL)
 ARE COMPUTED USING THE SOLVATED SYSTEM'S DENSITY MATRIX, BUT
 ONLY WITH AO INTEGRAL CONTRIBUTIONS FROM THE QUANTUM SOLUTE.
 THE ONE EXCEPTION IS THE DIPOLE, WHICH IS ALSO PRINTED FOR THE TOTAL SYSTEM.

          ----------------------------
          SOLUTE ELECTROSTATIC MOMENTS
          ----------------------------

 POINT   1           X           Y           Z (BOHR)    CHARGE
                -0.000123   -0.000132    0.045806       -0.00 (A.U.)
         DX          DY          DZ         /D/  (DEBYE)
    -0.001259    0.000362   -2.550731    2.550731

          ----------------------------
          SYSTEM ELECTROSTATIC MOMENTS
          ----------------------------

 POINT   1           X           Y           Z (BOHR)    CHARGE
                -0.000123   -0.000132    0.045806       -0.00 (A.U.)
         DX          DY          DZ         /D/  (DEBYE)
    -0.001259    0.000362   -2.550731    2.550731
 INCLUDING PCM SURFACE CHARGES, TOTAL CHARGE=   -0.024507, AND TOTAL DIPOLE IS
         DX          DY          DZ         /D/  (DEBYE)
    -0.000682    0.000182   -1.281768    1.281768
 ...... END OF PROPERTY EVALUATION ......
 CPU     0: STEP CPU TIME=     0.37 TOTAL CPU TIME=        234.6 (      3.9 MIN)
 TOTAL WALL CLOCK TIME=        248.1 SECONDS, CPU UTILIZATION IS    94.53%

 .... DONE WITH PCM CONTRIBUTION TO GRADIENT ....
 CPU     0: STEP CPU TIME=     1.44 TOTAL CPU TIME=        236.0 (      3.9 MIN)
 TOTAL WALL CLOCK TIME=        249.9 SECONDS, CPU UTILIZATION IS    94.43%

 BEGINNING ONE ELECTRON GRADIENT...
 ..... END OF 1-ELECTRON GRADIENT ......
 CPU     0: STEP CPU TIME=     0.06 TOTAL CPU TIME=        236.0 (      3.9 MIN)
 TOTAL WALL CLOCK TIME=        250.0 SECONDS, CPU UTILIZATION IS    94.41%

          ----------------------
          GRADIENT OF THE ENERGY
          ----------------------
 MEMORY FOR GRID POINT CONTRIBUTIONS TO THE DFT GRADIENT=   1703985 WORDS.
 CPU     0: STEP CPU TIME=     7.36 TOTAL CPU TIME=        243.4 (      4.1 MIN)
 TOTAL WALL CLOCK TIME=        258.4 SECONDS, CPU UTILIZATION IS    94.22%

 THE MINIMUM MEMORY REQUIRED FOR THIS RUN IS    1197719 WORDS.
 USING    3481949 WORDS FOR 2E- DERIVATIVE INTEGRAL CONTRIBUTIONS.
 THE COARSE/FINE SCHWARZ SCREENINGS SKIPPED     18324564/    17679854 BLOCKS.
 THE NUMBER OF GRADIENT INTEGRAL BLOCKS COMPUTED WAS  61014102
 ...... END OF 2-ELECTRON GRADIENT ......
 CPU     0: STEP CPU TIME=    21.36 TOTAL CPU TIME=        264.8 (      4.4 MIN)
 TOTAL WALL CLOCK TIME=        280.1 SECONDS, CPU UTILIZATION IS    94.53%

                         ----------------------
                         GRADIENT OF THE ENERGY
                         ----------------------

 UNITS ARE HARTREE/BOHR    E'X               E'Y               E'Z 
    1 C               -0.000013373       0.000002174      -0.021384439
    2 C                0.000007883       0.000318713       0.014583748
    3 C                0.000007880      -0.000321550       0.014582863
    4 C                0.000022142       0.027768629      -0.018686610
    5 C               -0.000035395      -0.027763772      -0.018693214
    6 C               -0.000083921      -0.076870845      -0.015441749
    7 C                0.000073801       0.076874555      -0.015423609
    8 H                0.000000092      -0.000000124       0.000574727
    9 H                0.000000932       0.000682368       0.000012324
   10 H               -0.000000660      -0.000682475       0.000012249
   11 H               -0.000000553      -0.000386618      -0.000741640
   12 H                0.000000213       0.000386762      -0.000741382
   13 C               -0.000004244      -0.009298560       0.019367583
   14 C                0.000014596       0.009293867       0.019370330
   15 H                0.000000953      -0.000130683       0.000789788
   16 H                0.000000948       0.000130613       0.000789974
   17 C                0.000008649      -0.000003241       0.022130856
   18 H                0.000000056       0.000000184      -0.001101798

                   MAXIMUM GRADIENT =    0.076874555
                       RMS GRADIENT =    0.017657572
  $VIB   
          IVIB=   0 IATOM=   0 ICOORD=   0 E=     -385.8404514425
 -1.337300789E-05 2.173755164E-06-2.138443916E-02 7.882598424E-06 3.187133997E-04
  1.458374775E-02 7.879597998E-06-3.215495629E-04 1.458286348E-02 2.214210123E-05
  2.776862881E-02-1.868660974E-02-3.539522695E-05-2.776377183E-02-1.869321436E-02
 -8.392128590E-05-7.687084462E-02-1.544174852E-02 7.380148445E-05 7.687455462E-02
 -1.542360948E-02 9.231569872E-08-1.240002445E-07 5.747265865E-04 9.323452786E-07
  6.823683699E-04 1.232439964E-05-6.597200338E-07-6.824750178E-04 1.224862082E-05
 -5.526714888E-07-3.866176430E-04-7.416398222E-04 2.127936408E-07 3.867621956E-04
 -7.413822262E-04-4.244342081E-06-9.298559652E-03 1.936758259E-02 1.459590129E-05
  9.293867360E-03 1.937032971E-02 9.530704978E-07-1.306827164E-04 7.897882251E-04
  9.484544581E-07 1.306131446E-04 7.899736659E-04 8.649107496E-06-3.240827415E-06
  2.213085649E-02 5.648387603E-08 1.842173462E-07-1.101798214E-03
 -1.258672360E-03 3.620886323E-04-2.550731009E+00

..... END OF SINGLE POINT GRADIENT .....
 CPU     0: STEP CPU TIME=     0.00 TOTAL CPU TIME=        264.8 (      4.4 MIN)
 TOTAL WALL CLOCK TIME=        280.1 SECONDS, CPU UTILIZATION IS    94.53%

             ----------------------------------------------
             -------   RESULTS OF SMD CALCULATION   -------
             ----------------------------------------------
 INTERNAL ENERGY IN SOLVENT = <PSI| H(0) |PSI>       =     -385.8265931953 A.U.
 TOTAL ENERGY IN SOLVENT = <PSI| H(0)+V/2 |PSI>      =     -385.8322953788 A.U.
 ELECTROSTATIC INTERACTION <PSI| V/2 |PSI>           =       -0.0057021835 A.U.
 CDS INTERACTION                                     =       -0.0081560638 A.U.
 TOTAL FREE ENERGY IN SOLVENT                        =     -385.8404514425 A.U.

 ELECTROSTATIC INTERACTION    =          -3.58 KCAL/MOL
 CDS INTERACTION              =          -5.12 KCAL/MOL

 .... DONE PRINTING SMD SOLVENT SUMMARY ....
 CPU     0: STEP CPU TIME=     0.00 TOTAL CPU TIME=        264.8 (      4.4 MIN)
 TOTAL WALL CLOCK TIME=        280.1 SECONDS, CPU UTILIZATION IS    94.53%
              3605208  WORDS OF DYNAMIC MEMORY USED
 EXECUTION OF GAMESS TERMINATED NORMALLY 17:20:19 26-MAR-2024    
 DDI: 263640 bytes (0.3 MB / 0 MWords) used by master data server.

 ----------------------------------------
 CPU timing information for all processes
 ========================================
 0: 261.850 + 2.938 = 264.788
 1: 260.675 + 1.144 = 261.820
 2: 261.723 + 1.553 = 263.276
 3: 261.179 + 1.80 = 262.260
 4: 261.822 + 2.89 = 263.912
 5: 260.817 + 1.189 = 262.07
 6: 262.197 + 1.814 = 264.12
 7: 260.370 + 1.08 = 261.378
 8: 261.706 + 2.427 = 264.134
 9: 260.996 + 1.76 = 262.72
 10: 260.156 + 2.14 = 262.170
 11: 260.401 + 1.93 = 261.495
 12: 260.941 + 2.246 = 263.187
 13: 261.259 + 1.98 = 262.357
 14: 260.655 + 1.891 = 262.546
 15: 258.217 + 1.17 = 259.235
 16: 260.962 + 2.358 = 263.320
 17: 260.996 + 0.843 = 261.840
 18: 260.670 + 1.542 = 262.213
 19: 259.185 + 0.829 = 260.14
 20: 261.377 + 1.786 = 263.164
 21: 260.439 + 0.809 = 261.248
 22: 259.35 + 1.623 = 260.659
 23: 259.714 + 0.828 = 260.542
 24: 261.953 + 2.206 = 264.159
 25: 260.690 + 0.815 = 261.506
 26: 259.725 + 1.636 = 261.362
 27: 257.146 + 0.817 = 257.964
 28: 259.681 + 2.42 = 261.723
 29: 259.333 + 0.839 = 260.173
 30: 257.675 + 1.585 = 259.261
 31: 259.531 + 0.744 = 260.275
 ----------------------------------------
 ddikick.x: exited gracefully.
----- accounting info -----
Files used on the master node logoc were:
-rw-r--r-- 1 root root     1519 мар 26 17:15 /media/arthur/temp/Azulene_DFT_gradient.F05
-rw-r--r-- 1 root root 16556320 мар 26 17:20 /media/arthur/temp/Azulene_DFT_gradient.F10
-rw-r--r-- 1 root root  4760064 мар 26 17:15 /media/arthur/temp/Azulene_DFT_gradient.F22
-rw-r--r-- 1 root root  4760064 мар 26 17:15 /media/arthur/temp/Azulene_DFT_gradient.F22.001
-rw-r--r-- 1 root root  4760064 мар 26 17:15 /media/arthur/temp/Azulene_DFT_gradient.F22.002
-rw-r--r-- 1 root root  4760064 мар 26 17:15 /media/arthur/temp/Azulene_DFT_gradient.F22.003
-rw-r--r-- 1 root root  4760064 мар 26 17:15 /media/arthur/temp/Azulene_DFT_gradient.F22.004
-rw-r--r-- 1 root root  4760064 мар 26 17:15 /media/arthur/temp/Azulene_DFT_gradient.F22.005
-rw-r--r-- 1 root root  4760064 мар 26 17:15 /media/arthur/temp/Azulene_DFT_gradient.F22.006
-rw-r--r-- 1 root root  4760064 мар 26 17:15 /media/arthur/temp/Azulene_DFT_gradient.F22.007
-rw-r--r-- 1 root root  4760064 мар 26 17:15 /media/arthur/temp/Azulene_DFT_gradient.F22.008
-rw-r--r-- 1 root root  4760064 мар 26 17:15 /media/arthur/temp/Azulene_DFT_gradient.F22.009
-rw-r--r-- 1 root root  4760064 мар 26 17:15 /media/arthur/temp/Azulene_DFT_gradient.F22.010
-rw-r--r-- 1 root root  4760064 мар 26 17:15 /media/arthur/temp/Azulene_DFT_gradient.F22.011
-rw-r--r-- 1 root root  4760064 мар 26 17:15 /media/arthur/temp/Azulene_DFT_gradient.F22.012
-rw-r--r-- 1 root root  4760064 мар 26 17:15 /media/arthur/temp/Azulene_DFT_gradient.F22.013
-rw-r--r-- 1 root root  4760064 мар 26 17:15 /media/arthur/temp/Azulene_DFT_gradient.F22.014
-rw-r--r-- 1 root root  4760064 мар 26 17:15 /media/arthur/temp/Azulene_DFT_gradient.F22.015
-rw-r--r-- 1 root root  4760064 мар 26 17:15 /media/arthur/temp/Azulene_DFT_gradient.F22.016
-rw-r--r-- 1 root root  4760064 мар 26 17:15 /media/arthur/temp/Azulene_DFT_gradient.F22.017
-rw-r--r-- 1 root root  4760064 мар 26 17:15 /media/arthur/temp/Azulene_DFT_gradient.F22.018
-rw-r--r-- 1 root root  4760064 мар 26 17:15 /media/arthur/temp/Azulene_DFT_gradient.F22.019
-rw-r--r-- 1 root root  4760064 мар 26 17:15 /media/arthur/temp/Azulene_DFT_gradient.F22.020
-rw-r--r-- 1 root root  4760064 мар 26 17:15 /media/arthur/temp/Azulene_DFT_gradient.F22.021
-rw-r--r-- 1 root root  4760064 мар 26 17:15 /media/arthur/temp/Azulene_DFT_gradient.F22.022
-rw-r--r-- 1 root root  4760064 мар 26 17:15 /media/arthur/temp/Azulene_DFT_gradient.F22.023
-rw-r--r-- 1 root root  4760064 мар 26 17:15 /media/arthur/temp/Azulene_DFT_gradient.F22.024
-rw-r--r-- 1 root root  4760064 мар 26 17:15 /media/arthur/temp/Azulene_DFT_gradient.F22.025
-rw-r--r-- 1 root root  4760064 мар 26 17:15 /media/arthur/temp/Azulene_DFT_gradient.F22.026
-rw-r--r-- 1 root root  4760064 мар 26 17:15 /media/arthur/temp/Azulene_DFT_gradient.F22.027
-rw-r--r-- 1 root root  4760064 мар 26 17:15 /media/arthur/temp/Azulene_DFT_gradient.F22.028
-rw-r--r-- 1 root root  4760064 мар 26 17:15 /media/arthur/temp/Azulene_DFT_gradient.F22.029
-rw-r--r-- 1 root root  4760064 мар 26 17:15 /media/arthur/temp/Azulene_DFT_gradient.F22.030
-rw-r--r-- 1 root root  4760064 мар 26 17:15 /media/arthur/temp/Azulene_DFT_gradient.F22.031
-rw-r--r-- 1 root root        8 мар 26 17:20 /media/arthur/temp/Azulene_DFT_gradient.F26
-rw-r--r-- 1 root root        0 мар 26 17:15 /media/arthur/temp/Azulene_DFT_gradient.F27
Вт мар 26 17:20:22 MSK 2024
0.0u 0.1s 4:43.34 0.0% 0+0k 0+8io 0pf+0w
