----- GAMESS execution script 'rungms' -----
This job is running on host logoc
under operating system Linux at Вс янв 16 20:13:33 MSK 2022
Available scratch disk space (Kbyte units) at beginning of the job is
Файл.система   1K-блоков Использовано  Доступно Использовано% Cмонтировано в
/dev/nvme0n1   491208944     41560776 424626404            9% /media/arthur/temp
GAMESS temporary binary files will be written to /media/arthur/temp
GAMESS supplementary output files will be written to /usr/local/gamess/output
Copying input file ./naphthalene_mc_1TB2u_hess.inp to your run's scratch directory...
 
Assuming a single but multicore node.
 

 Distributed Data Interface kickoff program.
 Initiating 32 compute processes on 1 nodes to run the following command:
 /usr/local/gamess/gamess.01.x naphthalene_mc_1TB2u_hess 

          *******************************************************
          *                                                     *
          *          GAMESS VERSION = 30 SEP 2020 (R2)          *
          *                                                     *
          *              doi.org/10.1063/5.0005188              *
          *                                                     *
          **************** 64 BIT LINUX VERSION *****************

  GAMESS HAS BEEN MADE POSSIBLE WITH IMPORTANT CONTRIBUTIONS FROM
  THE FOLLOWING INDIVIDUALS (IN ALPHABETICAL ORDER):

     IVANA ADAMOVIC, CHRISTINE AIKENS, TOMOKO AKAMA,
     YURI ALEXEEV, YURIKO AOKI, POOJA ARORA, TOSHIO ASADA,
     ANDREY ASADCHEV, KIM K. BALDRIDGE, PRADIPTA BANDYOPADHYAY,
     MARIA BARYSZ, ROB BELL, JONATHAN BENTZ, COLLEEN BERTONI,
     JERRY A. BOATZ, BRETT BODE, KURT BRORSEN, KURT R. BRORSEN,
     LAIMUTIS BYTAUTAS, CALEB CARLIN, LAURA CARRINGTON,
     GALINA CHABAN, BENOIT CHAMPAGNE, WEI CHEN, MAHITO CHIBA,
     DAN CHIPMAN, CHEOL HO CHOI, TANNER CULPITT,
     DIPAYAN DATTA, PAUL DAY, ALBERT DEFUSCO,
     NUWAN DESILVA, J. EMILIANO DEUSTUA,
     TIM DUDLEY, MICHEL DUPUIS, STEVEN T. ELBERT,
     DMITRI FEDOROV, ALEX FINDLATER, GRAHAM FLETCHER,
     MARK FREITAG, CHRISTIAN FRIEDL, DAVID GARMER,
     IGOR S. GERASIMOV, KURT GLAESEMANN, MARK S. GORDON,
     JEFFREY GOUR, FENG LONG GU, EMILIE B. GUIDEZ,
     ANASTASIA GUNINA, SHARON HAMMES-SCHIFFER, MASATAKE HARUTA,
     KIMIHIKO HIRAO, YASUHIRO IKABATA, TZVETELIN IORDANOV,
     STEPHAN IRLE, KAZUYA ISHIMURA, JOE IVANIC, FRANK JENSEN,
     JAN H. JENSEN, VISVALDAS KAIRYS, MUNEAKI KAMIYA,
     MICHIO KATOUDA, NAOAKI KAWAKAMI, DAN KEMP, BERNARD KIRTMAN,
     KAZUO KITAURA, MARIUSZ KLOBUKOWSKI, MASATO KOBAYASHI,
     PRAKASHAN KORAMBATH, JACEK KORCHOWIEC, SHIRO KOSEKI,
     KAROL KOWALSKI, JIMMY KROMANN, STANISLAW KUCHARSKI,
     HENRY KURTZ, SAROM SOK LEANG, HUI LI, SHUHUA LI, WEI LI,
     JESSE LUTZ, ALEKSANDR O. LYKHIN, MARCIN MAKOWSKI,
     JOANI MATO, NIKITA MATSUNAGA, BENEDETTA MENNUCCI,
     GRANT MERRILL, NORIYUKI MINEZAWA, VLADIMIR MIRONOV,
     EISAKU MIYOSHI, JOHN A. MONTGOMERY JR., HIROTOSHI MORI,
     JONATHAN MULLIN, MONIKA MUSIAL, SHIGERU NAGASE,
     TAKESHI NAGATA, HIROMI NAKAI, TAKAHITO NAKAJIMA,
     YUYA NAKAJIMA, HARUYUKI NAKANO, HIROYA NAKATA, SEAN NEDD,
     HEATHER NETZLOFF, KIET A. NGUYEN, YOSHIO NISHIMOTO,
     BOSILJKA NJEGIC, RYAN OLSON, MIKE PAK, ROBERTO PEVERATI,
     BUU PHAM, PIOTR PIECUCH, ANNA POMOGAEVA, DAVID POOLE,
     SPENCER PRUITT, OLIVIER QUINET, LUKE ROSKOP,
     KLAUS RUEDENBERG, ANDREW SAND, TOSAPORN SATTASATHUCHANA,
     NOZOMI SAWADA, MICHAEL W. SCHMIDT, PATRICK E. SCHNEIDER,
     JUNJI SEINO, PRACHI SHARMA, JUN SHEN, JIM SHOEMAKER,
     YINAN SHU, DEJUN SI, JONATHAN SKONE, LYUDMILA SLIPCHENKO,
     TONY SMITH, JIE SONG, MARK SPACKMAN, CASPER STEINMANN,
     WALT STEVENS, PEIFENG SU, SHUJUN SU, CHET SWALINA,
     TETSUYA TAKETSUGU, ZHEN TAO, NANDUN THELLAMUREGE
     SEIKEN TOKURA, JACOPO TOMASI, TSUGUKI TOUMA, TAKAO TSUNEDA,
     HIROAKI UMEDA, JORGE LUIS GALVEZ VALLEJO, YALI WANG,
     SIMON WEBB, AARON WEST, THERESA L. WINDUS, MARTA WLOCH,
     PENG XU, KIYOSHI YAGI, SUSUMU YANAGISAWA, YANG YANG,
     SOOHAENG YOO, TAKESHI YOSHIKAWA, FEDERICO ZAHARIEV,
     TOBY ZENG

  WHO ARE SUPPORTED BY THEIR INSTITUTION/UNIVERSITY/COMPANY/GROUP
  (IN ALPHABETICAL ORDER):

     EP ANALYTICS, FACULTES UNIVERSITAIRES NOTRE-DAME DE LA PAIX,
     INSTITUTE FOR MOLECULAR SCIENCE, IOWA STATE UNIVERSITY,
     JACKSON STATE UNIVERSITY, JOHANNES KEPLER UNIVERSITY LINZ,
     KYUSHU UNIVERSITY, MICHIGAN STATE UNIVERSITY,
     MIE UNIVERSITY, MOSCOW STATE UNIVERSITY,
     N. COPERNICUS UNIVERSITY, NAGOYA UNIVERSITY,
     NANJING UNIVERSITY, NAT. INST. OF ADVANCED INDUSTRIAL
     SCIENCE AND TECHNOLOGY, NATIONAL INST. OF STANDARDS AND
     TECHNOLOGY, NESMEYANOV INSTITUTE OF ORGANOELEMENT COMPOUNDS
     OF RUSSIAN ACADEMY OF SCIENCES, OSAKA PREFECTURE UNIVERSITY,
     PENNSYLVANIA STATE UNIVERSITY, TOKYO INSTITUTE OF TECHNOLOGY,
     UNIVERSITY OF AARHUS, UNIVERSITY OF ALBERTA,
     UNIVERSITY OF CALIFORNIA AT SANTA BARBARA,
     UNIVERSITY OF COPENHAGEN, UNIVERSITY OF IOWA,
     UNIVERSITY OF MEMPHIS, UNIVERSITY OF MINNESOTA,
     UNIVERSITY OF NEBRASKA, UNIVERSITY OF NEW ENGLAND,
     UNIVERSITY OF NOTRE DAME, UNIVERSITY OF PISA,
     UNIVERSITY OF SILESIA, UNIVERSITY OF TOKYO,
     UNIVERSITY OF ZURICH, WASEDA UNIVERSITY, YALE UNIVERSITY

  GAMESS SOFTWARE MANAGEMENT TEAM FOR THIS RELEASE:
     MARK S. GORDON (TEAM LEAD),
     BRETT BODE (SENIOR ADVISOR),
     GIUSEPPE BARCA,
     COLLEEN BERTONI,
     KRISTOPHER KEIPERT (ADVISOR),
     SAROM S. LEANG (DEVELOPMENT LEAD),
     BUU PHAM,
     JORGE LUIS GALVEZ VALLEJO (WEBSITE ADMINISTRATOR),
     PENG XU


 PARALLEL VERSION RUNNING ON       32 PROCESSORS IN        1 NODES.

 EXECUTION OF GAMESS BEGUN 20:13:33 16-JAN-2022    

            ECHO OF THE FIRST FEW INPUT CARDS -
 INPUT CARD> $CONTRL SCFTYP=MCSCF RUNTYP=hessian                                            
 INPUT CARD> MAXIT=70 MULT=3 EXETYP=run $END                                                
 INPUT CARD> $SYSTEM mwords=200 memddi=400 $END                                             
 INPUT CARD> $BASIS GBASIS=N311 NGAUSS=6 NDFUNC=2 NDFUNC=2 $END                             
 INPUT CARD> $GUESS  GUESS=moread norb=274 $end                                             
 INPUT CARD> $mcscf cistep=aldet soscf=.f. fullnr=.t. maxit=150 $end                        
 INPUT CARD> $DET GROUP=D2h STSYM=B2u NCORE=31 NELS=6 NACT=5                                
 INPUT CARD> NSTATE=4 wstate(1)=1.,0. $END                                                  
 INPUT CARD> $cpmchf gcrodr=.t. micit=20 kicit=10 reclin=.false.                            
 INPUT CARD>         prcchg=.true. prctol=1.0 $end                                          
 INPUT CARD> $DATA                                                                          
 INPUT CARD>naphthalene                                                                     
 INPUT CARD>Dnh 2                                                                           
 INPUT CARD>                                                                                
 INPUT CARD> C           6.0   0.0000000000   0.7291793218  -0.0000000000                   
 INPUT CARD> C           6.0  -1.2212188661   1.3915870619   0.0000000000                   
 INPUT CARD> C           6.0  -2.4701616368   0.6667408429  -0.0000000000                   
 INPUT CARD> H           1.0  -1.2394113783   2.4653538919   0.0000000000                   
 INPUT CARD> H           1.0  -3.3909985075   1.2188366259  -0.0000000000                   
 INPUT CARD> $end                                                                           
 INPUT CARD>--- OPTIMIZED MCSCF MO-S --- GENERATED AT 18:40:25 15-JAN-2022                  
 INPUT CARD>naphthalene                                                                     
 INPUT CARD>E(MCSCF)=     -383.3456889123, E(NUC)=      457.8404237468                      
 INPUT CARD> $VEC                                                                           
 INPUT CARD> 1  1 3.06158640E-01 2.52956921E-01 0.00000000E+00 9.66989199E-05 0.00000000E+00
 INPUT CARD> 1  2 3.92962379E-03 0.00000000E+00 7.69776712E-05 0.00000000E+00 1.00167218E-03
 INPUT CARD> 1  3 0.00000000E+00 8.13517057E-05 0.00000000E+00-3.39035403E-04-3.62155131E-04
 INPUT CARD> 1  4-7.94594039E-04 0.00000000E+00 0.00000000E+00 0.00000000E+00-8.93634084E-04
 INPUT CARD> 1  5-8.81886803E-04-4.81067767E-04 0.00000000E+00 0.00000000E+00 0.00000000E+00
 INPUT CARD> 1  6 3.06158640E-01 2.52956921E-01 0.00000000E+00-9.66989199E-05 0.00000000E+00
 INPUT CARD> 1  7 3.92962379E-03 0.00000000E+00-7.69776712E-05 0.00000000E+00 1.00167218E-03
 INPUT CARD> 1  8 0.00000000E+00-8.13517057E-05 0.00000000E+00-3.39035403E-04-3.62155131E-04
 INPUT CARD> 1  9-7.94594039E-04 0.00000000E+00 0.00000000E+00 0.00000000E+00-8.93634084E-04
 INPUT CARD> 1 10-8.81886803E-04-4.81067767E-04 0.00000000E+00 0.00000000E+00 0.00000000E+00
 INPUT CARD> 1 11 1.79133312E-01 1.48040054E-01-3.50379396E-05 3.24303118E-05 0.00000000E+00
 INPUT CARD> 1 12 2.19529275E-03-2.26106787E-04 1.42385866E-04 0.00000000E+00 9.55248267E-04
 INPUT CARD> 1 13 2.89595169E-05-4.80167081E-05 0.00000000E+00-1.60206619E-04-2.67428950E-04
 INPUT CARD> 1 14-4.09329412E-04-6.46772107E-05 0.00000000E+00 0.00000000E+00-3.91549047E-04
 INPUT CARD> 1 15-1.98370234E-04-3.47558788E-04 7.69616302E-05 0.00000000E+00 0.00000000E+00
 INPUT CARD> 1 16 1.79133312E-01 1.48040054E-01 3.50379396E-05 3.24303118E-05 0.00000000E+00
 INPUT CARD> 1 17 2.19529275E-03 2.26106787E-04 1.42385866E-04 0.00000000E+00 9.55248267E-04
 INPUT CARD> 1 18-2.89595169E-05-4.80167081E-05 0.00000000E+00-1.60206619E-04-2.67428950E-04
 INPUT CARD> 1 19-4.09329412E-04 6.46772107E-05 0.00000000E+00 0.00000000E+00-3.91549047E-04
 INPUT CARD> 1 20-1.98370234E-04-3.47558788E-04-7.69616302E-05 0.00000000E+00 0.00000000E+00
 INPUT CARD> 1 21 1.79133312E-01 1.48040054E-01-3.50379396E-05-3.24303118E-05 0.00000000E+00
 INPUT CARD> 1 22 2.19529275E-03-2.26106787E-04-1.42385866E-04 0.00000000E+00 9.55248267E-04
 INPUT CARD> 1 23 2.89595169E-05 4.80167081E-05 0.00000000E+00-1.60206619E-04-2.67428950E-04
 INPUT CARD> 1 24-4.09329412E-04 6.46772107E-05 0.00000000E+00 0.00000000E+00-3.91549047E-04
 INPUT CARD> 1 25-1.98370234E-04-3.47558788E-04-7.69616302E-05 0.00000000E+00 0.00000000E+00
 INPUT CARD> 1 26 1.79133312E-01 1.48040054E-01 3.50379396E-05-3.24303118E-05 0.00000000E+00
  200000000 WORDS OF MEMORY AVAILABLE

     BASIS OPTIONS
     -------------
     GBASIS=N311         IGAUSS=       6      POLAR=POPN311 
     NDFUNC=       2     NFFUNC=       0     DIFFSP=       F
     NPFUNC=       0      DIFFS=       F     BASNAM=        
     SPLIT2=     2.00000000     0.50000000


     RUN TITLE
     ---------
 naphthalene                                                                     

 THE POINT GROUP OF THE MOLECULE IS DNH     
 THE ORDER OF THE PRINCIPAL AXIS IS     2

 ATOM      ATOMIC                      COORDINATES (BOHR)
           CHARGE         X                   Y                   Z
 C           6.0    -0.0000000000       -1.3779491141        0.0000000000
 C           6.0     0.0000000000        1.3779491141       -0.0000000000
 C           6.0     2.3077690280       -2.6297182350        0.0000000000
 C           6.0    -2.3077690280       -2.6297182350        0.0000000000
 C           6.0     2.3077690280        2.6297182350        0.0000000000
 C           6.0    -2.3077690280        2.6297182350        0.0000000000
 C           6.0     4.6679286389       -1.2599574979        0.0000000000
 C           6.0    -4.6679286389       -1.2599574979        0.0000000000
 C           6.0     4.6679286389        1.2599574979        0.0000000000
 C           6.0    -4.6679286389        1.2599574979       -0.0000000000
 H           1.0     2.3421478911       -4.6588433185        0.0000000000
 H           1.0    -2.3421478911       -4.6588433185        0.0000000000
 H           1.0     2.3421478911        4.6588433185        0.0000000000
 H           1.0    -2.3421478911        4.6588433185        0.0000000000
 H           1.0     6.4080580039       -2.3032672468        0.0000000000
 H           1.0    -6.4080580039       -2.3032672468        0.0000000000
 H           1.0     6.4080580039        2.3032672468        0.0000000000
 H           1.0    -6.4080580039        2.3032672468       -0.0000000000

          INTERNUCLEAR DISTANCES (ANGS.)
          ------------------------------

                1 C          2 C          3 C          4 C          5 C     

   1 C       0.0000000    1.4583586 *  1.3893018 *  1.3893018 *  2.4472486 *
   2 C       1.4583586 *  0.0000000    2.4472486 *  2.4472486 *  1.3893018 *
   3 C       1.3893018 *  2.4472486 *  0.0000000    2.4424377 *  2.7831741 *
   4 C       1.3893018 *  2.4472486 *  2.4424377 *  0.0000000    3.7029124  
   5 C       2.4472486 *  1.3893018 *  2.7831741 *  3.7029124    0.0000000  
   6 C       2.4472486 *  1.3893018 *  3.7029124    2.7831741 *  2.4424377 *
   7 C       2.4709506 *  2.8373036 *  1.4440430 *  3.7618735    2.4076071 *
   8 C       2.4709506 *  2.8373036 *  3.7618735    1.4440430 *  4.2264647  
   9 C       2.8373036 *  2.4709506 *  2.4076071 *  4.2264647    1.4440430 *
  10 C       2.8373036 *  2.4709506 *  4.2264647    2.4076071 *  3.7618735  
  11 H       2.1331767 *  3.4265410    1.0739209 *  2.6847116 *  3.8569839  
  12 H       2.1331767 *  3.4265410    2.6847116 *  1.0739209 *  4.5750076  
  13 H       3.4265410    2.1331767 *  3.8569839    4.5750076    1.0739209 *
  14 H       3.4265410    2.1331767 *  4.5750076    3.8569839    2.6847116 *
  15 H       3.4261692    3.9107080    2.1766457 *  4.6154514    3.3944448  
  16 H       3.4261692    3.9107080    4.6154514    2.1766457 *  5.2997039  
  17 H       3.9107080    3.4261692    3.3944448    5.2997039    2.1766457 *
  18 H       3.9107080    3.4261692    5.2997039    3.3944448    4.6154514  

                6 C          7 C          8 C          9 C         10 C     

   1 C       2.4472486 *  2.4709506 *  2.4709506 *  2.8373036 *  2.8373036 *
   2 C       1.3893018 *  2.8373036 *  2.8373036 *  2.4709506 *  2.4709506 *
   3 C       3.7029124    1.4440430 *  3.7618735    2.4076071 *  4.2264647  
   4 C       2.7831741 *  3.7618735    1.4440430 *  4.2264647    2.4076071 *
   5 C       2.4424377 *  2.4076071 *  4.2264647    1.4440430 *  3.7618735  
   6 C       0.0000000    4.2264647    2.4076071 *  3.7618735    1.4440430 *
   7 C       4.2264647    0.0000000    4.9403233    1.3334817 *  5.1171249  
   8 C       2.4076071 *  4.9403233    0.0000000    5.1171249    1.3334817 *
   9 C       3.7618735    1.3334817 *  5.1171249    0.0000000    4.9403233  
  10 C       1.4440430 *  5.1171249    1.3334817 *  4.9403233    0.0000000  
  11 H       4.5750076    2.1793933 *  4.1226134    3.3652286    4.8549922  
  12 H       3.8569839    4.1226134    2.1793933 *  4.8549922    3.3652286  
  13 H       2.6847116 *  3.3652286    4.8549922    2.1793933 *  4.1226134  
  14 H       1.0739209 *  4.8549922    3.3652286    4.1226134    2.1793933 *
  15 H       5.2997039    1.0736621 *  5.8871052    2.0984144 *  6.1569961  
  16 H       3.3944448    5.8871052    1.0736621 *  6.1569961    2.0984144 *
  17 H       4.6154514    2.0984144 *  6.1569961    1.0736621 *  5.8871052  
  18 H       2.1766457 *  6.1569961    2.0984144 *  5.8871052    1.0736621 *

               11 H         12 H         13 H         14 H         15 H     

   1 C       2.1331767 *  2.1331767 *  3.4265410    3.4265410    3.4261692  
   2 C       3.4265410    3.4265410    2.1331767 *  2.1331767 *  3.9107080  
   3 C       1.0739209 *  2.6847116 *  3.8569839    4.5750076    2.1766457 *
   4 C       2.6847116 *  1.0739209 *  4.5750076    3.8569839    4.6154514  
   5 C       3.8569839    4.5750076    1.0739209 *  2.6847116 *  3.3944448  
   6 C       4.5750076    3.8569839    2.6847116 *  1.0739209 *  5.2997039  
   7 C       2.1793933 *  4.1226134    3.3652286    4.8549922    1.0736621 *
   8 C       4.1226134    2.1793933 *  4.8549922    3.3652286    5.8871052  
   9 C       3.3652286    4.8549922    2.1793933 *  4.1226134    2.0984144 *
  10 C       4.8549922    3.3652286    4.1226134    2.1793933 *  6.1569961  
  11 H       0.0000000    2.4788228 *  4.9307078    5.5187355    2.4865905 *
  12 H       2.4788228 *  0.0000000    5.5187355    4.9307078    4.7952582  
  13 H       4.9307078    5.5187355    0.0000000    2.4788228 *  4.2664490  
  14 H       5.5187355    4.9307078    2.4788228 *  0.0000000    5.9172591  
  15 H       2.4865905 *  4.7952582    4.2664490    5.9172591    0.0000000  
  16 H       4.7952582    2.4865905 *  5.9172591    4.2664490    6.7819970  
  17 H       4.2664490    5.9172591    2.4865905 *  4.7952582    2.4376733 *
  18 H       5.9172591    4.2664490    4.7952582    2.4865905 *  7.2067839  

               16 H         17 H         18 H     

   1 C       3.4261692    3.9107080    3.9107080  
   2 C       3.9107080    3.4261692    3.4261692  
   3 C       4.6154514    3.3944448    5.2997039  
   4 C       2.1766457 *  5.2997039    3.3944448  
   5 C       5.2997039    2.1766457 *  4.6154514  
   6 C       3.3944448    4.6154514    2.1766457 *
   7 C       5.8871052    2.0984144 *  6.1569961  
   8 C       1.0736621 *  6.1569961    2.0984144 *
   9 C       6.1569961    1.0736621 *  5.8871052  
  10 C       2.0984144 *  5.8871052    1.0736621 *
  11 H       4.7952582    4.2664490    5.9172591  
  12 H       2.4865905 *  5.9172591    4.2664490  
  13 H       5.9172591    2.4865905 *  4.7952582  
  14 H       4.2664490    4.7952582    2.4865905 *
  15 H       6.7819970    2.4376733 *  7.2067839  
  16 H       0.0000000    7.2067839    2.4376733 *
  17 H       7.2067839    0.0000000    6.7819970  
  18 H       2.4376733 *  6.7819970    0.0000000  

  * ... LESS THAN  3.000


     ATOMIC BASIS SET
     ----------------
 THE CONTRACTED PRIMITIVE FUNCTIONS HAVE BEEN UNNORMALIZED
 THE CONTRACTED BASIS FUNCTIONS ARE NOW NORMALIZED TO UNITY

  SHELL TYPE  PRIMITIVE        EXPONENT          CONTRACTION COEFFICIENT(S)

 C         

      7   S       1          4563.2400000    0.001966650249
      7   S       2           682.0240000    0.015230601932
      7   S       3           154.9730000    0.076126909656
      7   S       4            44.4553000    0.260801033080
      7   S       5            13.0290000    0.616462078191
      7   S       6             1.8277300    0.221006028032

      8   L       7            20.9642000    0.114660080729    0.040248692673
      8   L       8             4.8033100    0.919999647749    0.237593956746
      8   L       9             1.4593300   -0.003030682134    0.815853851473

      9   L      10             0.4834560    1.000000000000    1.000000000000

     10   L      11             0.1455850    1.000000000000    1.000000000000

     11   D      12             1.2520000    1.000000000000

     12   D      13             0.3130000    1.000000000000

 C         

     31   S      14          4563.2400000    0.001966650249
     31   S      15           682.0240000    0.015230601932
     31   S      16           154.9730000    0.076126909656
     31   S      17            44.4553000    0.260801033080
     31   S      18            13.0290000    0.616462078191
     31   S      19             1.8277300    0.221006028032

     32   L      20            20.9642000    0.114660080729    0.040248692673
     32   L      21             4.8033100    0.919999647749    0.237593956746
     32   L      22             1.4593300   -0.003030682134    0.815853851473

     33   L      23             0.4834560    1.000000000000    1.000000000000

     34   L      24             0.1455850    1.000000000000    1.000000000000

     35   D      25             1.2520000    1.000000000000

     36   D      26             0.3130000    1.000000000000

 C         

     55   S      27          4563.2400000    0.001966650249
     55   S      28           682.0240000    0.015230601932
     55   S      29           154.9730000    0.076126909656
     55   S      30            44.4553000    0.260801033080
     55   S      31            13.0290000    0.616462078191
     55   S      32             1.8277300    0.221006028032

     56   L      33            20.9642000    0.114660080729    0.040248692673
     56   L      34             4.8033100    0.919999647749    0.237593956746
     56   L      35             1.4593300   -0.003030682134    0.815853851473

     57   L      36             0.4834560    1.000000000000    1.000000000000

     58   L      37             0.1455850    1.000000000000    1.000000000000

     59   D      38             1.2520000    1.000000000000

     60   D      39             0.3130000    1.000000000000

 H         

     70   S      40            33.8650000    0.025493814541
     70   S      41             5.0947900    0.190373108582
     70   S      42             1.1587900    0.852161486043

     71   S      43             0.3258400    1.000000000000

     72   S      44             0.1027410    1.000000000000

 H         

     82   S      45            33.8650000    0.025493814541
     82   S      46             5.0947900    0.190373108582
     82   S      47             1.1587900    0.852161486043

     83   S      48             0.3258400    1.000000000000

     84   S      49             0.1027410    1.000000000000

 TOTAL NUMBER OF BASIS SET SHELLS             =   84
 NUMBER OF CARTESIAN GAUSSIAN BASIS FUNCTIONS =  274
 NUMBER OF ELECTRONS                          =   68
 CHARGE OF MOLECULE                           =    0
 SPIN MULTIPLICITY                            =    3
 NUMBER OF OCCUPIED ORBITALS (ALPHA)          =   35
 NUMBER OF OCCUPIED ORBITALS (BETA )          =   33
 TOTAL NUMBER OF ATOMS                        =   18
 THE NUCLEAR REPULSION ENERGY IS      457.8404237423

     $CONTRL OPTIONS
     ---------------
 SCFTYP=MCSCF        RUNTYP=HESSIAN      EXETYP=RUN     
 MPLEVL=       0     CITYP =NONE         CCTYP =NONE         VBTYP =NONE    
 DFTTYP=NONE         TDDFT =NONE    
 MULT  =       3     ICHARG=       0     NZVAR =       0     COORD =UNIQUE  
 PP    =NONE         RELWFN=NONE         LOCAL =NONE         NUMGRD=       F
 ISPHER=      -1     NOSYM =       0     MAXIT =      70     UNITS =ANGS    
 PLTORB=       F     MOLPLT=       F     AIMPAC=       F     FRIEND=        
 NPRINT=       7     IREST =       0     GEOM  =INPUT   
 NORMF =       0     NORMP =       0     ITOL  =      20     ICUT  =       9
 INTTYP=BEST         GRDTYP=BEST         QMTTOL= 1.0E-06

     $SYSTEM OPTIONS
     ---------------
  REPLICATED MEMORY=   200000000 WORDS (ON EVERY NODE).
 DISTRIBUTED MEMDDI=         400 MILLION WORDS IN AGGREGATE,
 MEMDDI DISTRIBUTED OVER  32 PROCESSORS IS    12500000 WORDS/PROCESSOR.
 TOTAL MEMORY REQUESTED ON EACH PROCESSOR=   212500000 WORDS.
 TIMLIM=      525600.00 MINUTES, OR     365.0 DAYS.
 PARALL= T  BALTYP=  DLB     KDIAG=    0  COREFL= F
 MXSEQ2=     300 MXSEQ3=     150  mem10=         0  mem22=         0

 Using Gaussians for PCM contribution to MEP, params: 0.10000E+01 0.10000E-07

          ----------------
          PROPERTIES INPUT
          ----------------

     MOMENTS            FIELD           POTENTIAL          DENSITY
 IEMOM =       1   IEFLD =       0   IEPOT =       0   IEDEN =       0
 WHERE =COMASS     WHERE =NUCLEI     WHERE =NUCLEI     WHERE =NUCLEI  
 OUTPUT=BOTH       OUTPUT=BOTH       OUTPUT=BOTH       OUTPUT=BOTH    
 IEMINT=       0   IEFINT=       0                     IEDINT=       0
                                                       MORB  =       0

     -------------------------------
     INTEGRAL TRANSFORMATION OPTIONS
     -------------------------------
     NWORD  =            0
     CUTOFF = 1.0E-09     MPTRAN =       0
     DIRTRF =       F     AOINTS =DUP     
 INTEGRAL TRANSFORMATION OPTION -DIRTRF- FORCED TRUE,
 DUE TO THE CHOICE OF -FULLNR- IN A PARALLEL JOB.

          ----------------------
          MCSCF INPUT PARAMETERS
          ----------------------
 CONVERGER SELECTION: FOCAS = F  SOSCF = F  FULLNR = T  QUD = F  JACOBI = F
 SECULAR EQUATION METHOD CISTEP = ALDET   
 --- GENERAL INPUT OPTIONS:
 MAXIT =     150  MICIT =       1  ACURCY= 1.000E-05
 DAMP  =   0.000  CANONC=       T  ENGTOL= 1.000E-10
 EKT   =       F  NPUNCH=       2  NWORD =         0
 REGENERATE CI AFTER CONVERGENCE = NONE    
 DIABATIZATION AFTER CONVERGENCE =        F
 --- INPUT FOR FULLNR CONVERGER:
 METHOD=DM2       FORS  =       F  DROPC =       T
 LINSER=       F  FCORE =       F  NORB  =     274

          ----------------------
          INTEGRAL INPUT OPTIONS
          ----------------------
 NOPK  =       1 NORDER=       0 SCHWRZ=       T

     ------------------------------------------
     THE POINT GROUP IS DNH, NAXIS= 2, ORDER= 8
     ------------------------------------------

     DIMENSIONS OF THE SYMMETRY SUBSPACES ARE
 AG  =   55     AU  =   16     B3U =   47     B3G =   19     B1G =   47
 B1U =   19     B2U =   55     B2G =   16

 ..... DONE SETTING UP THE RUN .....
 CPU     0: STEP CPU TIME=     0.48 TOTAL CPU TIME=          0.5 (      0.0 MIN)
 TOTAL WALL CLOCK TIME=          0.6 SECONDS, CPU UTILIZATION IS    87.08%

     ---------------------------------
     HESSIAN MATRIX CONTROL PARAMETERS
     ---------------------------------
     METHOD=ANALYTIC   NVIB  =       2   VIBSIZ= 0.01000
     RDHESS=       F   PURIFY=       F   PRTIFC=       F
     VIBANL=       T   DECOMP=       F   PROJCT=       F
     SCLFAC= 1.00000   PRTSCN=       F   NPRT  =       0
     PULCOR=       F   NPUN  =       0   REDOVB=       T
     HSSTYP=GENERAL 
     THERMOCHEMISTRY WILL BE PRINTED FOR    1 TEMPERATURES:
      298.15000
 Old integral subroutine is used

     ------------------------------
     CPHF RESPONSE SOLUTION OPTIONS
     ------------------------------
     POLAR  =       F     NWORD  =       0
     CPHF   =MO      

          ********************
          1 ELECTRON INTEGRALS
          ********************
 TIME TO DO   DIPOLE INTEGRALS=      0.02
 ...... END OF ONE-ELECTRON INTEGRALS ......
 CPU     0: STEP CPU TIME=     0.04 TOTAL CPU TIME=          0.5 (      0.0 MIN)
 TOTAL WALL CLOCK TIME=          0.6 SECONDS, CPU UTILIZATION IS    86.26%

          -------------
          GUESS OPTIONS
          -------------
          GUESS =MOREAD            NORB  =     274          NORDER=       0
          MIX   =       F          PRTMO =       F          PUNMO =       F
          TOLZ  = 1.0E-08          TOLE  = 1.0E-05
          SYMDEN=       F          PURIFY=       F

 INITIAL GUESS ORBITALS GENERATED BY MOREAD   ROUTINE.

 SYMMETRIES FOR INITIAL GUESS ORBITALS FOLLOW.   BOTH SET(S).
    35 ORBITALS ARE OCCUPIED (   10 CORE ORBITALS).
     1=AG       2=B2U      3=B3U      4=B1G      5=AG       6=B2U      7=B3U 
     8=AG       9=B1G     10=B2U     11=AG      12=B3U     13=B2U     14=AG  
    15=B1G     16=B3U     17=B2U     18=AG      19=B1G     20=B3U     21=AG  
    22=B2U     23=AG      24=B3U     25=B1G     26=B2U     27=B3U     28=B1G 
    29=AG      30=B1U     31=B2G     32=B3G     33=B1U     34=AU      35=B2G 
    36=B3G     37=AG      38=B3U     39=B2U     40=B1U     41=AG      42=B1G 
    43=B2U     44=B3U     45=B1G     46=AU      47=B3G     48=AG      49=B3U 
    50=B2U     51=AG      52=B2U     53=AG      54=B3U     55=AG      56=B2U 
    57=B1G     58=B1G     59=B3U     60=AG      61=B3U     62=B1U     63=B3G 
    64=B3U     65=B2G     66=B2U     67=AG      68=B2U     69=B1U     70=B1G 
    71=AU      72=B2U     73=B1G     74=B1U     75=B2G     76=AG      77=B3U 
    78=B1G     79=B2G     80=AG      81=B2U     82=B3G     83=B1G     84=B3U 
    85=B2U     86=AU      87=B1U     88=B2U     89=AG      90=B3U     91=B1G 
    92=B3G     93=AG      94=B1U     95=B3U     96=B2G     97=B1G     98=B2U 
    99=B3G    100=AU     101=B2U    102=B3U    103=B2U    104=AG     105=B2G 
   106=B1G    107=AG     108=B3U    109=B1G    110=AU     111=B1U    112=AG  
   113=AG     114=B2U    115=B1G    116=B3U    117=AG     118=B3U    119=B1U 
   120=B2U    121=B3G    122=AG     123=B1G    124=B3U    125=B2U    126=B2U 
   127=B3G    128=B1G    129=AG     130=AU     131=B2G    132=B2G    133=B3U 
   134=B1U    135=AG     136=B1G    137=B3G    138=B1G    139=B2U    140=AG  
   141=B3U    142=B2U    143=B3U    144=AU     145=B2U    146=B1G    147=B2U 
   148=AG     149=B2U    150=B1G    151=AG     152=AU     153=B3U    154=B1G 
   155=B2U    156=AG     157=B3U    158=B1G    159=B3G    160=B2U    161=B3U 
   162=AG     163=B1G    164=B2U    165=B2U    166=B1G    167=B3U    168=AG  
   169=B2U    170=B1U    171=B1G    172=B2G    173=B3G    174=B3U    175=B1U 
   176=AG     177=AU     178=B3G    179=B2G    180=B1U    181=AG     182=B2G 
   183=B3U    184=B3U    185=B1U    186=B2U    187=B3G    188=AU     189=B1G 
   190=AG     191=B1U    192=AG     193=B1G    194=B2G    195=B3U    196=B2G 
   197=AG     198=B3G    199=AU     200=B1U    201=B2U    202=AU     203=B3U 
   204=AG     205=B3U    206=B3G    207=B2U    208=AG     209=B3U    210=B1U 
   211=B1G    212=B1U    213=B3U    214=B2G    215=AG     216=B3G    217=B1G 
   218=AU     219=AG     220=B3G    221=B2U    222=B2G    223=AG     224=AU  
   225=B2U    226=B1G    227=B2U    228=B1G    229=B3U    230=B1G    231=AU  
   232=B2U    233=B3G    234=B3U    235=AG     236=B1G    237=B2U    238=AG  
   239=B2U    240=B3U    241=B2U    242=B1G    243=B2U    244=AG     245=B1G 
   246=B3U    247=B2U    248=AG     249=B1G    250=B1G    251=B2U    252=B3U 
   253=B2U    254=B1G    255=AG     256=B3U    257=B2U    258=AG     259=B1G 
   260=B3U    261=B2U    262=AG     263=B1G    264=B2U    265=AG     266=B3U 
   267=B2U    268=AG     269=B3U    270=B1G    271=AG     272=B2U    273=B1G 
   274=B2U 
 ...... END OF INITIAL ORBITAL SELECTION ......
 CPU     0: STEP CPU TIME=     0.12 TOTAL CPU TIME=          0.6 (      0.0 MIN)
 TOTAL WALL CLOCK TIME=          0.8 SECONDS, CPU UTILIZATION IS    83.84%

                    ----------------------
                    AO INTEGRAL TECHNOLOGY
                    ----------------------
     S,P,L SHELL ROTATED AXIS INTEGRALS, REPROGRAMMED BY
        KAZUYA ISHIMURA (IMS) AND JOSE SIERRA (SYNSTAR).
     S,P,D,L SHELL ROTATED AXIS INTEGRALS PROGRAMMED BY
        KAZUYA ISHIMURA (INSTITUTE FOR MOLECULAR SCIENCE).
     S,P,D,F,G SHELL TO TOTAL QUARTET ANGULAR MOMENTUM SUM 5,
        ERIC PROGRAM BY GRAHAM FLETCHER (ELORET AND NASA ADVANCED
        SUPERCOMPUTING DIVISION, AMES RESEARCH CENTER).
     S,P,D,F,G,L SHELL GENERAL RYS QUADRATURE PROGRAMMED BY
        MICHEL DUPUIS (PACIFIC NORTHWEST NATIONAL LABORATORY).
 DIRECT TRANSFORMATION SKIPS AO INTEGRAL STORAGE ON DISK.
  ...... END OF TWO-ELECTRON INTEGRALS .....
 STEP CPU TIME =     0.01 TOTAL CPU TIME =          0.7 (      0.0 MIN)
 TOTAL WALL CLOCK TIME=          0.8 SECONDS, CPU UTILIZATION IS    84.11%

          -----------------
          MCSCF CALCULATION
          -----------------

 ----- NUCLEAR ENERGY ----- =       457.8404237423

     --------------------------------------------------
          AMES LABORATORY DETERMINANTAL FULL CI
     PROGRAM WRITTEN BY JOE IVANIC AND KLAUS RUEDENBERG
     --------------------------------------------------

 THE POINT GROUP                  =   D2H     
 THE STATE SYMMETRY               =   B2U     
 NUMBER OF CORE ORBITALS          =   31
 NUMBER OF ACTIVE ORBITALS        =    5
 NUMBER OF ALPHA ELECTRONS        =   35 (   4 ACTIVE)
 NUMBER OF BETA ELECTRONS         =   33 (   2 ACTIVE)
 NUMBER OF OCCUPIED ORBITALS      =   36
 NUMBER OF CI STATES REQUESTED    =    4
 NUMBER OF CI STARTING VECTORS    =    4
 MAX. NO. OF CI EXPANSION VECTORS =   10
 SIZE OF INITIAL CI GUESS MATRIX  =  300
 MAX. NO. OF CI ITERS/STATE       =  100
 CI DIAGONALIZATION CRITERION     = 1.00E-06
 PURE SPIN STATE AVERAGED 1E- AND 2E- DENSITY MATRIX OPTION=.T.
 STATE=   1 DM2 WEIGHT=   1.00000

 CORRELATION ENERGY ANALYSIS      =    F

 SYMMETRIES FOR THE  31 CORE,   5 ACTIVE ARE

     CORE= AG    B2U   B3U   B1G   AG    B2U   B3U   AG    B1G   B2U 
           AG    B3U   B2U   AG    B1G   B3U   B2U   AG    B1G   B3U 
           AG    B2U   AG    B3U   B1G   B2U   B3U   B1G   AG    B1U 
           B2G 

   ACTIVE= B3G   B1U   AU    B2G   B3G 

 EVALUATING EXCHANGE INTEGRALS FOR DIRECT INTEGRAL TRANSFORMATION
 SCHWARZ INEQUALITY OVERHEAD:     36249 INTEGRALS, T=        0.00

     --------------------------------------------
     PARTIAL TWO ELECTRON INTEGRAL TRANSFORMATION
     --------------------------------------------

 NUMBER OF CORE MOLECULAR ORBITALS     =   31
 NUMBER OF OCCUPIED MOLECULAR ORBITALS =   36
 TOTAL NUMBER OF MOLECULAR ORBITALS    =  274
 TOTAL NUMBER OF ATOMIC ORBITALS       =  274
 THRESHOLD FOR KEEPING TRANSFORMED 2E- INTEGRALS = 1.000E-09

 -------------------------------     ------------------------------
 DISTRIBUTED DATA TRANSFORMATION     PROGRAM WRITTEN BY G. FLETCHER
 -------------------------------     ------------------------------

 THE DISTRIBUTED MEMORY REQUIRED FOR THIS STEP IS MEMDDI=        82 MWORDS
 CREATING DISTRIBUTED STORAGE FOR [VIR OCC|VIR OCC] INTEGRALS
 DDI: Creating Array [0] - 75076 x 666 = 50000616 words.
 CREATING DISTRIBUTED STORAGE FOR [VIR OCC|OCC OCC] INTEGRALS
 DDI: Creating Array [1] - 238 x 23976 = 5706288 words.
 CREATING DISTRIBUTED STORAGE FOR [OCC OCC|OCC OCC] INTEGRALS
 DDI: Creating Array [2] - 666 x 666 = 443556 words.
 CREATING DISTRIBUTED STORAGE FOR [VIR VIR|OCC OCC] INTEGRALS
 DDI: Creating Array [3] - 37675 x 666 = 25091550 words.
 FOR   32 PROCESSORS, THE REPLICATED MEMORY NEEDED IS     1059754 WORDS.
 SCHWARZ INEQUALITY OVERHEAD:     36249 INTEGRALS, T=        0.00

      DIRECT 4-INDEX TRANSFORMATION 
      SCHWARZ INEQUALITY TEST SKIPPED    1045414 INTEGRAL BLOCKS
 ----- FROZEN CORE ENERGY =      -835.4534348492
 ... END OF INTEGRAL TRANSFORMATION ...
 CPU     0: STEP CPU TIME=     2.51 TOTAL CPU TIME=          3.2 (      0.1 MIN)
 TOTAL WALL CLOCK TIME=          3.6 SECONDS, CPU UTILIZATION IS    87.77%

     --------------------------------------------------
          AMES LABORATORY DETERMINANTAL FULL CI
     PROGRAM WRITTEN BY JOE IVANIC AND KLAUS RUEDENBERG
     --------------------------------------------------

 THE NUMBER OF DETERMINANTS HAVING SPACE SYMMETRY B2U
 IN POINT GROUP D2H  WITH SZ=  1.0 IS             13
 THE DETERMINANT FULL CI REQUIRES          217096 WORDS
 SMALL CI MATRIX, JUST USING INCORE DIAGONALIZATION...

 CI EIGENVECTORS WILL BE LABELED IN GROUP=D2H     
 PRINTING ALL NON-ZERO CI COEFFICIENTS

 STATE   1  ENERGY=      -383.3456889122  S=  1.00  SZ=  1.00  SPACE SYM=B2U 

ALPHA  |BETA   | CI COEFFICIENT
-------|-------|---------------
 11110 | 11000 |                                                                                                       0.9733167973
 11110 | 01001 |                                                                                                       0.1741963323
 11011 | 01100 |                                                                                                      -0.0852453925
 11101 | 01010 |                                                                                                       0.0595967079
 10111 | 10001 |                                                                                                      -0.0565726620
 01111 | 01001 |                                                                                                      -0.0484316568
 11110 | 00110 |                                                                                                       0.0414310404
 11101 | 10100 |                                                                                                       0.0409283210
 11011 | 10010 |                                                                                                      -0.0402094331
 01111 | 11000 |                                                                                                       0.0293542318
 11011 | 00011 |                                                                                                      -0.0074234830
 11101 | 00101 |                                                                                                       0.0040205783
 01111 | 00110 |                                                                                                       0.0020031871

 STATE   2  ENERGY=      -383.0405877670  S=  1.00  SZ=  1.00  SPACE SYM=B2U 

ALPHA  |BETA   | CI COEFFICIENT
-------|-------|---------------
 11101 | 10100 |                                                                                                       0.8986220661
 11110 | 00110 |                                                                                                       0.2714703809
 11011 | 01100 |                                                                                                       0.2397617797
 01111 | 00110 |                                                                                                       0.1438031703
 11011 | 10010 |                                                                                                      -0.1329192486
 01111 | 11000 |                                                                                                       0.1042652977
 11101 | 01010 |                                                                                                       0.0686138494
 11110 | 01001 |                                                                                                      -0.0668826327
 10111 | 10001 |                                                                                                      -0.0337850570
 11110 | 11000 |                                                                                                      -0.0301979619
 01111 | 01001 |                                                                                                       0.0246957291
 11101 | 00101 |                                                                                                      -0.0151017160
 11011 | 00011 |                                                                                                      -0.0024368344

 STATE   3  ENERGY=      -383.0173124645  S=  2.00  SZ=  1.00  SPACE SYM=B2U 

ALPHA  |BETA   | CI COEFFICIENT
-------|-------|---------------
 01111 | 11000 |                                                                                                       0.5000000000
 11110 | 01001 |                                                                                                      -0.5000000000
 11101 | 01010 |                                                                                                       0.5000000000
 11011 | 01100 |                                                                                                      -0.5000000000
 11101 | 10100 |                                                                                                       0.0000000000
 11110 | 00110 |                                                                                                       0.0000000000
 11011 | 10010 |                                                                                                      -0.0000000000
 01111 | 00110 |                                                                                                       0.0000000000
 01111 | 01001 |                                                                                                       0.0000000000
 10111 | 10001 |                                                                                                      -0.0000000000
 11110 | 11000 |                                                                                                       0.0000000000
 11101 | 00101 |                                                                                                      -0.0000000000
 11011 | 00011 |                                                                                                      -0.0000000000

 STATE   4  ENERGY=      -382.9585274919  S=  1.00  SZ=  1.00  SPACE SYM=B2U 

ALPHA  |BETA   | CI COEFFICIENT
-------|-------|---------------
 11110 | 00110 |                                                                                                       0.8151385855
 11011 | 10010 |                                                                                                       0.3654413761
 11101 | 10100 |                                                                                                      -0.2632458754
 01111 | 00110 |                                                                                                       0.2338399445
 11101 | 01010 |                                                                                                       0.1661847984
 01111 | 11000 |                                                                                                      -0.1550872487
 11011 | 01100 |                                                                                                       0.1171699400
 11110 | 01001 |                                                                                                      -0.1060723903
 11011 | 00011 |                                                                                                      -0.0284844874
 11101 | 00101 |                                                                                                      -0.0172287961
 11110 | 11000 |                                                                                                       0.0140534075
 01111 | 01001 |                                                                                                      -0.0077651679
 10111 | 10001 |                                                                                                      -0.0025679284
 ..... DONE WITH DETERMINANT CI COMPUTATION .....
 CPU     0: STEP CPU TIME=     0.09 TOTAL CPU TIME=          3.3 (      0.1 MIN)
 TOTAL WALL CLOCK TIME=          3.7 SECONDS, CPU UTILIZATION IS    86.91%

     --------------------------------------------------
      ONE AND TWO PARTICLE DENSITY MATRIX COMPUTATION
     PROGRAM WRITTEN BY JOE IVANIC AND KLAUS RUEDENBERG
     --------------------------------------------------

      31702 WORDS WILL BE USED TO FORM THE DENSITIES
 THE DENSITIES ARE STATE AVERAGED OVER   1 ROOT(S)
 STATE=   1   ENERGY=     -383.3456889122   WEIGHT= 1.00000   S=  1.00
 SIEVING THE AG   SYMMETRY NONZERO DENSITY ELEMENTS IN GROUP D2H     
         39 NONZERO DM2 ELEMENTS WRITTEN IN       1 RECORDS TO FILE 15
 ..... DONE WITH 1 AND 2 PARTICLE DENSITY MATRIX .....
 CPU     0: STEP CPU TIME=     0.00 TOTAL CPU TIME=          3.3 (      0.1 MIN)
 TOTAL WALL CLOCK TIME=          3.8 SECONDS, CPU UTILIZATION IS    86.88%

     --------------------------------     -----------------------------
     MCHF NEWTON-RAPHSON OPTIMIZATION     CODE WRITTEN BY MICHEL DUPUIS
     --------------------------------     -----------------------------
     PARALLEL VERSION WRITTEN BY G. FLETCHER (ELORET)
     NASA ADVANCED SUPERCOMPUTING DIVISION, AMES RESEARCH CENTER

 NUMBER OF INDEPENDENT ORBITAL ROTATION PARAMETERS =  1293
 ..... DONE SOLVING NEWTON-RAPHSON EQUATIONS .....
 CPU     0: STEP CPU TIME=     0.10 TOTAL CPU TIME=          3.4 (      0.1 MIN)
 TOTAL WALL CLOCK TIME=          4.2 SECONDS, CPU UTILIZATION IS    79.05%
 ..... DONE WITH NTN-RPH ORBITAL ROTATIONS ..... 
 CPU     0: STEP CPU TIME=     0.00 TOTAL CPU TIME=          3.4 (      0.1 MIN)
 TOTAL WALL CLOCK TIME=          4.2 SECONDS, CPU UTILIZATION IS    79.02%
 MAXIMUM MEMORY USED BY NTN-RPH CODE WAS    309154 WORDS.

 ITER     TOTAL ENERGY      DEL(E)  LAGRANGIAN ASYMMETRY   SQCDF  MICIT   DAMP
   1     -383.345688912 -0.345688912  0.000003   63   32 4.764E-10  1   0.0000
   2     -383.345688912 -0.000000000  0.000003   63   32 4.763E-10  1   0.0000

          --------------------
          LAGRANGIAN CONVERGED
          --------------------

 FINAL MCSCF ENERGY IS     -383.3456889124 AFTER   2 ITERATIONS

 -MCCI- BASED ON OPTIMIZED ORBITALS
 ----------------------------------

 PLEASE NOTE: IF THE ACTIVE ORBITALS ARE CANONICALIZED BELOW,
 THE FOLLOWING CI EXPANSION COEFFICIENTS AND THE DENSITY DO NOT
 CORRESPOND TO THE PRINTED ORBITALS.  THE PRINTED EXPANSIONS MATCH
 THE ORBITALS USED DURING THE LAST ITERATION.  IF YOU WISH TO SEE
 CI EXPANSIONS BASED ON THE CANONICAL (OR NATURAL) ORBITALS, YOU
 MUST RUN A CI CALCULATION WITH THAT ORBITAL CHOICE READ IN $VEC.

 CI EIGENVECTORS WILL BE LABELED IN GROUP=D2H     
 PRINTING ALL NON-ZERO CI COEFFICIENTS

 STATE   1  ENERGY=      -383.3456889124  S=  1.00  SZ=  1.00  SPACE SYM=B2U 

ALPHA  |BETA   | CI COEFFICIENT
-------|-------|---------------
 11110 | 11000 |                                                                                                       0.9733167973
 11110 | 01001 |                                                                                                       0.1741963323
 11011 | 01100 |                                                                                                      -0.0852453925
 11101 | 01010 |                                                                                                       0.0595967079
 10111 | 10001 |                                                                                                      -0.0565726620
 01111 | 01001 |                                                                                                      -0.0484316568
 11110 | 00110 |                                                                                                       0.0414310404
 11101 | 10100 |                                                                                                       0.0409283210
 11011 | 10010 |                                                                                                      -0.0402094331
 01111 | 11000 |                                                                                                       0.0293542318
 11011 | 00011 |                                                                                                      -0.0074234830
 11101 | 00101 |                                                                                                       0.0040205783
 01111 | 00110 |                                                                                                       0.0020031871

 STATE   2  ENERGY=      -383.0405877672  S=  1.00  SZ=  1.00  SPACE SYM=B2U 

ALPHA  |BETA   | CI COEFFICIENT
-------|-------|---------------
 11101 | 10100 |                                                                                                       0.8986220661
 11110 | 00110 |                                                                                                       0.2714703809
 11011 | 01100 |                                                                                                       0.2397617798
 01111 | 00110 |                                                                                                       0.1438031703
 11011 | 10010 |                                                                                                      -0.1329192486
 01111 | 11000 |                                                                                                       0.1042652977
 11101 | 01010 |                                                                                                       0.0686138494
 11110 | 01001 |                                                                                                      -0.0668826327
 10111 | 10001 |                                                                                                      -0.0337850570
 11110 | 11000 |                                                                                                      -0.0301979619
 01111 | 01001 |                                                                                                       0.0246957291
 11101 | 00101 |                                                                                                      -0.0151017160
 11011 | 00011 |                                                                                                      -0.0024368344

 STATE   3  ENERGY=      -383.0173124647  S=  2.00  SZ=  1.00  SPACE SYM=B2U 

ALPHA  |BETA   | CI COEFFICIENT
-------|-------|---------------
 11011 | 01100 |                                                                                                       0.5000000000
 11101 | 01010 |                                                                                                      -0.5000000000
 01111 | 11000 |                                                                                                      -0.5000000000
 11110 | 01001 |                                                                                                       0.5000000000
 11110 | 00110 |                                                                                                       0.0000000000
 11101 | 10100 |                                                                                                       0.0000000000
 11011 | 10010 |                                                                                                      -0.0000000000
 01111 | 00110 |                                                                                                       0.0000000000
 01111 | 01001 |                                                                                                       0.0000000000
 10111 | 10001 |                                                                                                      -0.0000000000
 11110 | 11000 |                                                                                                       0.0000000000
 11101 | 00101 |                                                                                                      -0.0000000000
 11011 | 00011 |                                                                                                      -0.0000000000

 STATE   4  ENERGY=      -382.9585274921  S=  1.00  SZ=  1.00  SPACE SYM=B2U 

ALPHA  |BETA   | CI COEFFICIENT
-------|-------|---------------
 11110 | 00110 |                                                                                                       0.8151385855
 11011 | 10010 |                                                                                                       0.3654413761
 11101 | 10100 |                                                                                                      -0.2632458754
 01111 | 00110 |                                                                                                       0.2338399445
 11101 | 01010 |                                                                                                       0.1661847984
 01111 | 11000 |                                                                                                      -0.1550872487
 11011 | 01100 |                                                                                                       0.1171699400
 11110 | 01001 |                                                                                                      -0.1060723903
 11011 | 00011 |                                                                                                      -0.0284844874
 11101 | 00101 |                                                                                                      -0.0172287961
 11110 | 11000 |                                                                                                       0.0140534075
 01111 | 01001 |                                                                                                      -0.0077651679
 10111 | 10001 |                                                                                                      -0.0025679284

 DENSITY MATRIX OVER ACTIVE MO-S

             1           2           3           4           5

    1    1.9514883
    2    0.0000000   1.9885153
    3    0.0000000   0.0000000   1.0017399
    4    0.0000000   0.0000000   0.0000000   1.0017012
    5   -0.1888069   0.0000000   0.0000000   0.0000000   0.0565552

 FORMING THE "STANDARD FOCK OPERATOR" IN DIRECT AO INTEGRAL MODE...
    31 FILLED,    5 ACTIVE, AND  238 VIRTUAL ORBITALS  WILL BE CANONICALIZED

          ----------------------
          MCSCF NATURAL ORBITALS
          ----------------------

                      1          2          3          4          5
                  -11.2335   -11.2331   -11.2325   -11.2325   -11.2317
                     AG         B2U        B3U        B1G        AG  
    1  C  1  S    0.306159   0.236415   0.000000   0.000000   0.254180
    2  C  1  S    0.252957   0.195301   0.000000   0.000000   0.210010
    3  C  1  X    0.000000  -0.000000   0.000191   0.000190  -0.000000
    4  C  1  Y    0.000097  -0.000081   0.000000   0.000000   0.000213
    5  C  1  Z    0.000000  -0.000000   0.000000   0.000000  -0.000000
    6  C  1  S    0.003930   0.002470   0.000000   0.000000   0.002669
    7  C  1  X    0.000000  -0.000000   0.000119   0.000151  -0.000000
    8  C  1  Y    0.000077  -0.000260   0.000000   0.000000   0.000310
    9  C  1  Z    0.000000  -0.000000   0.000000   0.000000  -0.000000
   10  C  1  S    0.001002   0.000397   0.000000   0.000000   0.002884
   11  C  1  X    0.000000  -0.000000   0.000446   0.002669  -0.000000
   12  C  1  Y    0.000081  -0.002364   0.000000   0.000000  -0.000178
   13  C  1  Z    0.000000  -0.000000   0.000000   0.000000  -0.000000
   14  C  1 XX   -0.000339  -0.000184   0.000000   0.000000  -0.000478
   15  C  1 YY   -0.000362  -0.000462   0.000000   0.000000  -0.000341
   16  C  1 ZZ   -0.000795  -0.000669   0.000000   0.000000  -0.000712
   17  C  1 XY    0.000000  -0.000000  -0.000113  -0.000139  -0.000000
   18  C  1 XZ    0.000000  -0.000000   0.000000   0.000000  -0.000000
   19  C  1 YZ    0.000000  -0.000000   0.000000   0.000000  -0.000000
   20  C  1 XX   -0.000894  -0.002112   0.000000   0.000000  -0.000681
   21  C  1 YY   -0.000882  -0.000972   0.000000   0.000000  -0.001156
   22  C  1 ZZ   -0.000481  -0.000491   0.000000   0.000000  -0.000734
   23  C  1 XY    0.000000  -0.000000   0.000238   0.001252  -0.000000
   24  C  1 XZ    0.000000  -0.000000   0.000000   0.000000  -0.000000
   25  C  1 YZ    0.000000  -0.000000   0.000000   0.000000  -0.000000
   26  C  2  S    0.306159  -0.236415   0.000000   0.000000   0.254180
   27  C  2  S    0.252957  -0.195301   0.000000   0.000000   0.210010
   28  C  2  X    0.000000  -0.000000   0.000191  -0.000190  -0.000000
   29  C  2  Y   -0.000097  -0.000081   0.000000   0.000000  -0.000213
   30  C  2  Z    0.000000  -0.000000   0.000000   0.000000  -0.000000
   31  C  2  S    0.003930  -0.002470   0.000000   0.000000   0.002669
   32  C  2  X    0.000000  -0.000000   0.000119  -0.000151  -0.000000
   33  C  2  Y   -0.000077  -0.000260   0.000000   0.000000  -0.000310
   34  C  2  Z    0.000000  -0.000000   0.000000   0.000000  -0.000000
   35  C  2  S    0.001002  -0.000397   0.000000   0.000000   0.002884
   36  C  2  X    0.000000  -0.000000   0.000446  -0.002669  -0.000000
   37  C  2  Y   -0.000081  -0.002364   0.000000   0.000000   0.000178
   38  C  2  Z    0.000000  -0.000000   0.000000   0.000000  -0.000000
   39  C  2 XX   -0.000339   0.000184   0.000000   0.000000  -0.000478
   40  C  2 YY   -0.000362   0.000462   0.000000   0.000000  -0.000341
   41  C  2 ZZ   -0.000795   0.000669   0.000000   0.000000  -0.000712
   42  C  2 XY    0.000000  -0.000000   0.000113  -0.000139  -0.000000
   43  C  2 XZ    0.000000  -0.000000   0.000000   0.000000  -0.000000
   44  C  2 YZ    0.000000  -0.000000   0.000000   0.000000  -0.000000
   45  C  2 XX   -0.000894   0.002112   0.000000   0.000000  -0.000681
   46  C  2 YY   -0.000882   0.000972   0.000000   0.000000  -0.001156
   47  C  2 ZZ   -0.000481   0.000491   0.000000   0.000000  -0.000734
   48  C  2 XY    0.000000  -0.000000  -0.000238   0.001252  -0.000000
   49  C  2 XZ    0.000000  -0.000000   0.000000   0.000000  -0.000000
   50  C  2 YZ    0.000000  -0.000000   0.000000   0.000000  -0.000000
   51  C  3  S    0.179133   0.225868   0.278569   0.280378  -0.212430
   52  C  3  S    0.148040   0.186595   0.230173   0.231650  -0.175555
   53  C  3  X   -0.000035   0.000019   0.000096   0.000101  -0.000143
   54  C  3  Y    0.000032  -0.000020  -0.000009  -0.000001   0.000054
   55  C  3  Z    0.000000  -0.000000   0.000000   0.000000  -0.000000
   56  C  3  S    0.002195   0.003389   0.002969   0.003554  -0.001795
   57  C  3  X   -0.000226  -0.000472  -0.000198  -0.000347  -0.000091
   58  C  3  Y    0.000142   0.000485   0.000074   0.000105  -0.000032
   59  C  3  Z    0.000000  -0.000000   0.000000   0.000000  -0.000000
   60  C  3  S    0.000955  -0.000113   0.001669  -0.000291  -0.002469
   61  C  3  X    0.000029   0.000541   0.000174   0.000283   0.000229
   62  C  3  Y   -0.000048   0.000238  -0.000427  -0.001141  -0.000162
   63  C  3  Z    0.000000  -0.000000   0.000000   0.000000  -0.000000
   64  C  3 XX   -0.000160  -0.000279  -0.000406  -0.000416   0.000374
   65  C  3 YY   -0.000267  -0.000358  -0.000440  -0.000431   0.000343
   66  C  3 ZZ   -0.000409  -0.000588  -0.000729  -0.000742   0.000545
   67  C  3 XY   -0.000065  -0.000079  -0.000021  -0.000020  -0.000035
   68  C  3 XZ    0.000000  -0.000000   0.000000   0.000000  -0.000000
   69  C  3 YZ    0.000000  -0.000000   0.000000   0.000000  -0.000000
   70  C  3 XX   -0.000392  -0.000555  -0.000905  -0.000397   0.000830
   71  C  3 YY   -0.000198  -0.000049  -0.001010  -0.001126   0.000780
   72  C  3 ZZ   -0.000348  -0.000268  -0.000695  -0.000532   0.000733
   73  C  3 XY    0.000077  -0.000069  -0.000046  -0.000035   0.000174
   74  C  3 XZ    0.000000  -0.000000   0.000000   0.000000  -0.000000
   75  C  3 YZ    0.000000  -0.000000   0.000000   0.000000  -0.000000
   76  C  4  S    0.179133   0.225868  -0.278569  -0.280378  -0.212430
   77  C  4  S    0.148040   0.186595  -0.230173  -0.231650  -0.175555
   78  C  4  X    0.000035  -0.000019   0.000096   0.000101   0.000143
   79  C  4  Y    0.000032  -0.000020   0.000009   0.000001   0.000054
   80  C  4  Z    0.000000  -0.000000   0.000000   0.000000  -0.000000
   81  C  4  S    0.002195   0.003389  -0.002969  -0.003554  -0.001795
   82  C  4  X    0.000226   0.000472  -0.000198  -0.000347   0.000091
   83  C  4  Y    0.000142   0.000485  -0.000074  -0.000105  -0.000032
   84  C  4  Z    0.000000  -0.000000   0.000000   0.000000  -0.000000
   85  C  4  S    0.000955  -0.000113  -0.001669   0.000291  -0.002469
   86  C  4  X   -0.000029  -0.000541   0.000174   0.000283  -0.000229
   87  C  4  Y   -0.000048   0.000238   0.000427   0.001141  -0.000162
   88  C  4  Z    0.000000  -0.000000   0.000000   0.000000  -0.000000
   89  C  4 XX   -0.000160  -0.000279   0.000406   0.000416   0.000374
   90  C  4 YY   -0.000267  -0.000358   0.000440   0.000431   0.000343
   91  C  4 ZZ   -0.000409  -0.000588   0.000729   0.000742   0.000545
   92  C  4 XY    0.000065   0.000079  -0.000021  -0.000020   0.000035
   93  C  4 XZ    0.000000  -0.000000   0.000000   0.000000  -0.000000
   94  C  4 YZ    0.000000  -0.000000   0.000000   0.000000  -0.000000
   95  C  4 XX   -0.000392  -0.000555   0.000905   0.000397   0.000830
   96  C  4 YY   -0.000198  -0.000049   0.001010   0.001126   0.000780
   97  C  4 ZZ   -0.000348  -0.000268   0.000695   0.000532   0.000733
   98  C  4 XY   -0.000077   0.000069  -0.000046  -0.000035  -0.000174
   99  C  4 XZ    0.000000  -0.000000   0.000000   0.000000  -0.000000
  100  C  4 YZ    0.000000  -0.000000   0.000000   0.000000  -0.000000
  101  C  5  S    0.179133  -0.225868   0.278569  -0.280378  -0.212430
  102  C  5  S    0.148040  -0.186595   0.230173  -0.231650  -0.175555
  103  C  5  X   -0.000035  -0.000019   0.000096  -0.000101  -0.000143
  104  C  5  Y   -0.000032  -0.000020   0.000009  -0.000001  -0.000054
  105  C  5  Z    0.000000  -0.000000   0.000000   0.000000  -0.000000
  106  C  5  S    0.002195  -0.003389   0.002969  -0.003554  -0.001795
  107  C  5  X   -0.000226   0.000472  -0.000198   0.000347  -0.000091
  108  C  5  Y   -0.000142   0.000485  -0.000074   0.000105   0.000032
  109  C  5  Z    0.000000  -0.000000   0.000000   0.000000  -0.000000
  110  C  5  S    0.000955   0.000113   0.001669   0.000291  -0.002469
  111  C  5  X    0.000029  -0.000541   0.000174  -0.000283   0.000229
  112  C  5  Y    0.000048   0.000238   0.000427  -0.001141   0.000162
  113  C  5  Z    0.000000  -0.000000   0.000000   0.000000  -0.000000
  114  C  5 XX   -0.000160   0.000279  -0.000406   0.000416   0.000374
  115  C  5 YY   -0.000267   0.000358  -0.000440   0.000431   0.000343
  116  C  5 ZZ   -0.000409   0.000588  -0.000729   0.000742   0.000545
  117  C  5 XY    0.000065  -0.000079   0.000021  -0.000020   0.000035
  118  C  5 XZ    0.000000  -0.000000   0.000000   0.000000  -0.000000
  119  C  5 YZ    0.000000  -0.000000   0.000000   0.000000  -0.000000
  120  C  5 XX   -0.000392   0.000555  -0.000905   0.000397   0.000830
  121  C  5 YY   -0.000198   0.000049  -0.001010   0.001126   0.000780
  122  C  5 ZZ   -0.000348   0.000268  -0.000695   0.000532   0.000733
  123  C  5 XY   -0.000077  -0.000069   0.000046  -0.000035  -0.000174
  124  C  5 XZ    0.000000  -0.000000   0.000000   0.000000  -0.000000
  125  C  5 YZ    0.000000  -0.000000   0.000000   0.000000  -0.000000
  126  C  6  S    0.179133  -0.225868  -0.278569   0.280378  -0.212430
  127  C  6  S    0.148040  -0.186595  -0.230173   0.231650  -0.175555
  128  C  6  X    0.000035   0.000019   0.000096  -0.000101   0.000143
  129  C  6  Y   -0.000032  -0.000020  -0.000009   0.000001  -0.000054
  130  C  6  Z    0.000000  -0.000000   0.000000   0.000000  -0.000000
  131  C  6  S    0.002195  -0.003389  -0.002969   0.003554  -0.001795
  132  C  6  X    0.000226  -0.000472  -0.000198   0.000347   0.000091
  133  C  6  Y   -0.000142   0.000485   0.000074  -0.000105   0.000032
  134  C  6  Z    0.000000  -0.000000   0.000000   0.000000  -0.000000
  135  C  6  S    0.000955   0.000113  -0.001669  -0.000291  -0.002469
  136  C  6  X   -0.000029   0.000541   0.000174  -0.000283  -0.000229
  137  C  6  Y    0.000048   0.000238  -0.000427   0.001141   0.000162
  138  C  6  Z    0.000000  -0.000000   0.000000   0.000000  -0.000000
  139  C  6 XX   -0.000160   0.000279   0.000406  -0.000416   0.000374
  140  C  6 YY   -0.000267   0.000358   0.000440  -0.000431   0.000343
  141  C  6 ZZ   -0.000409   0.000588   0.000729  -0.000742   0.000545
  142  C  6 XY   -0.000065   0.000079   0.000021  -0.000020  -0.000035
  143  C  6 XZ    0.000000  -0.000000   0.000000   0.000000  -0.000000
  144  C  6 YZ    0.000000  -0.000000   0.000000   0.000000  -0.000000
  145  C  6 XX   -0.000392   0.000555   0.000905  -0.000397   0.000830
  146  C  6 YY   -0.000198   0.000049   0.001010  -0.001126   0.000780
  147  C  6 ZZ   -0.000348   0.000268   0.000695  -0.000532   0.000733
  148  C  6 XY    0.000077   0.000069   0.000046  -0.000035   0.000174
  149  C  6 XZ    0.000000  -0.000000   0.000000   0.000000  -0.000000
  150  C  6 YZ    0.000000  -0.000000   0.000000   0.000000  -0.000000
  151  C  7  S    0.019302   0.019796   0.042182   0.027777  -0.044454
  152  C  7  S    0.015980   0.016362   0.034852   0.022934  -0.036722
  153  C  7  X   -0.000055  -0.000068  -0.000057  -0.000055   0.000051
  154  C  7  Y   -0.000027  -0.000051  -0.000045  -0.000068   0.000037
  155  C  7  Z    0.000000  -0.000000   0.000000   0.000000  -0.000000
  156  C  7  S    0.000194   0.000313   0.000815   0.000392  -0.000819
  157  C  7  X    0.000005  -0.000063  -0.000231  -0.000282   0.000200
  158  C  7  Y   -0.000064  -0.000042  -0.000097  -0.000072   0.000049
  159  C  7  Z    0.000000  -0.000000   0.000000   0.000000  -0.000000
  160  C  7  S   -0.000119   0.000522  -0.000229   0.001038   0.000130
  161  C  7  X    0.000070  -0.000080   0.000002  -0.000403  -0.000063
  162  C  7  Y    0.000027   0.000359   0.000097   0.000381   0.000024
  163  C  7  Z    0.000000  -0.000000   0.000000   0.000000  -0.000000
  164  C  7 XX    0.000019   0.000024   0.000005   0.000033   0.000019
  165  C  7 YY    0.000024  -0.000001  -0.000017  -0.000031   0.000026
  166  C  7 ZZ   -0.000008  -0.000035  -0.000097  -0.000087   0.000111
  167  C  7 XY    0.000041   0.000039   0.000058   0.000051  -0.000033
  168  C  7 XZ    0.000000  -0.000000   0.000000   0.000000  -0.000000
  169  C  7 YZ    0.000000  -0.000000   0.000000   0.000000  -0.000000
  170  C  7 XX   -0.000007  -0.000126   0.000057  -0.000107   0.000030
  171  C  7 YY    0.000045   0.000098   0.000046  -0.000212   0.000040
  172  C  7 ZZ   -0.000022  -0.000047   0.000033  -0.000027  -0.000013
  173  C  7 XY   -0.000047   0.000078  -0.000041  -0.000190  -0.000009
  174  C  7 XZ    0.000000  -0.000000   0.000000   0.000000  -0.000000
  175  C  7 YZ    0.000000  -0.000000   0.000000   0.000000  -0.000000
  176  C  8  S    0.019302   0.019796  -0.042182  -0.027777  -0.044454
  177  C  8  S    0.015980   0.016362  -0.034852  -0.022934  -0.036722
  178  C  8  X    0.000055   0.000068  -0.000057  -0.000055  -0.000051
  179  C  8  Y   -0.000027  -0.000051   0.000045   0.000068   0.000037
  180  C  8  Z    0.000000  -0.000000   0.000000   0.000000  -0.000000
  181  C  8  S    0.000194   0.000313  -0.000815  -0.000392  -0.000819
  182  C  8  X   -0.000005   0.000063  -0.000231  -0.000282  -0.000200
  183  C  8  Y   -0.000064  -0.000042   0.000097   0.000072   0.000049
  184  C  8  Z    0.000000  -0.000000   0.000000   0.000000  -0.000000
  185  C  8  S   -0.000119   0.000522   0.000229  -0.001038   0.000130
  186  C  8  X   -0.000070   0.000080   0.000002  -0.000403   0.000063
  187  C  8  Y    0.000027   0.000359  -0.000097  -0.000381   0.000024
  188  C  8  Z    0.000000  -0.000000   0.000000   0.000000  -0.000000
  189  C  8 XX    0.000019   0.000024  -0.000005  -0.000033   0.000019
  190  C  8 YY    0.000024  -0.000001   0.000017   0.000031   0.000026
  191  C  8 ZZ   -0.000008  -0.000035   0.000097   0.000087   0.000111
  192  C  8 XY   -0.000041  -0.000039   0.000058   0.000051   0.000033
  193  C  8 XZ    0.000000  -0.000000   0.000000   0.000000  -0.000000
  194  C  8 YZ    0.000000  -0.000000   0.000000   0.000000  -0.000000
  195  C  8 XX   -0.000007  -0.000126  -0.000057   0.000107   0.000030
  196  C  8 YY    0.000045   0.000098  -0.000046   0.000212   0.000040
  197  C  8 ZZ   -0.000022  -0.000047  -0.000033   0.000027  -0.000013
  198  C  8 XY    0.000047  -0.000078  -0.000041  -0.000190   0.000009
  199  C  8 XZ    0.000000  -0.000000   0.000000   0.000000  -0.000000
  200  C  8 YZ    0.000000  -0.000000   0.000000   0.000000  -0.000000
  201  C  9  S    0.019302  -0.019796   0.042182  -0.027777  -0.044454
  202  C  9  S    0.015980  -0.016362   0.034852  -0.022934  -0.036722
  203  C  9  X   -0.000055   0.000068  -0.000057   0.000055   0.000051
  204  C  9  Y    0.000027  -0.000051   0.000045  -0.000068  -0.000037
  205  C  9  Z    0.000000  -0.000000   0.000000   0.000000  -0.000000
  206  C  9  S    0.000194  -0.000313   0.000815  -0.000392  -0.000819
  207  C  9  X    0.000005   0.000063  -0.000231   0.000282   0.000200
  208  C  9  Y    0.000064  -0.000042   0.000097  -0.000072  -0.000049
  209  C  9  Z    0.000000  -0.000000   0.000000   0.000000  -0.000000
  210  C  9  S   -0.000119  -0.000522  -0.000229  -0.001038   0.000130
  211  C  9  X    0.000070   0.000080   0.000002   0.000403  -0.000063
  212  C  9  Y   -0.000027   0.000359  -0.000097   0.000381  -0.000024
  213  C  9  Z    0.000000  -0.000000   0.000000   0.000000  -0.000000
  214  C  9 XX    0.000019  -0.000024   0.000005  -0.000033   0.000019
  215  C  9 YY    0.000024   0.000001  -0.000017   0.000031   0.000026
  216  C  9 ZZ   -0.000008   0.000035  -0.000097   0.000087   0.000111
  217  C  9 XY   -0.000041   0.000039  -0.000058   0.000051   0.000033
  218  C  9 XZ    0.000000  -0.000000   0.000000   0.000000  -0.000000
  219  C  9 YZ    0.000000  -0.000000   0.000000   0.000000  -0.000000
  220  C  9 XX   -0.000007   0.000126   0.000057   0.000107   0.000030
  221  C  9 YY    0.000045  -0.000098   0.000046   0.000212   0.000040
  222  C  9 ZZ   -0.000022   0.000047   0.000033   0.000027  -0.000013
  223  C  9 XY    0.000047   0.000078   0.000041  -0.000190   0.000009
  224  C  9 XZ    0.000000  -0.000000   0.000000   0.000000  -0.000000
  225  C  9 YZ    0.000000  -0.000000   0.000000   0.000000  -0.000000
  226  C 10  S    0.019302  -0.019796  -0.042182   0.027777  -0.044454
  227  C 10  S    0.015980  -0.016362  -0.034852   0.022934  -0.036722
  228  C 10  X    0.000055  -0.000068  -0.000057   0.000055  -0.000051
  229  C 10  Y    0.000027  -0.000051  -0.000045   0.000068  -0.000037
  230  C 10  Z    0.000000  -0.000000   0.000000   0.000000  -0.000000
  231  C 10  S    0.000194  -0.000313  -0.000815   0.000392  -0.000819
  232  C 10  X   -0.000005  -0.000063  -0.000231   0.000282  -0.000200
  233  C 10  Y    0.000064  -0.000042  -0.000097   0.000072  -0.000049
  234  C 10  Z    0.000000  -0.000000   0.000000   0.000000  -0.000000
  235  C 10  S   -0.000119  -0.000522   0.000229   0.001038   0.000130
  236  C 10  X   -0.000070  -0.000080   0.000002   0.000403   0.000063
  237  C 10  Y   -0.000027   0.000359   0.000097  -0.000381  -0.000024
  238  C 10  Z    0.000000  -0.000000   0.000000   0.000000  -0.000000
  239  C 10 XX    0.000019  -0.000024  -0.000005   0.000033   0.000019
  240  C 10 YY    0.000024   0.000001   0.000017  -0.000031   0.000026
  241  C 10 ZZ   -0.000008   0.000035   0.000097  -0.000087   0.000111
  242  C 10 XY    0.000041  -0.000039  -0.000058   0.000051  -0.000033
  243  C 10 XZ    0.000000  -0.000000   0.000000   0.000000  -0.000000
  244  C 10 YZ    0.000000  -0.000000   0.000000   0.000000  -0.000000
  245  C 10 XX   -0.000007   0.000126  -0.000057  -0.000107   0.000030
  246  C 10 YY    0.000045  -0.000098  -0.000046  -0.000212   0.000040
  247  C 10 ZZ   -0.000022   0.000047  -0.000033  -0.000027  -0.000013
  248  C 10 XY   -0.000047  -0.000078   0.000041  -0.000190  -0.000009
  249  C 10 XZ    0.000000  -0.000000   0.000000   0.000000  -0.000000
  250  C 10 YZ    0.000000  -0.000000   0.000000   0.000000  -0.000000
  251  H 11  S    0.000092   0.000113   0.000192   0.000225  -0.000144
  252  H 11  S   -0.000071   0.000039   0.000210   0.000242  -0.000146
  253  H 11  S   -0.000087   0.000027  -0.000369  -0.000470   0.000148
  254  H 12  S    0.000092   0.000113  -0.000192  -0.000225  -0.000144
  255  H 12  S   -0.000071   0.000039  -0.000210  -0.000242  -0.000146
  256  H 12  S   -0.000087   0.000027   0.000369   0.000470   0.000148
  257  H 13  S    0.000092  -0.000113   0.000192  -0.000225  -0.000144
  258  H 13  S   -0.000071  -0.000039   0.000210  -0.000242  -0.000146
  259  H 13  S   -0.000087  -0.000027  -0.000369   0.000470   0.000148
  260  H 14  S    0.000092  -0.000113  -0.000192   0.000225  -0.000144
  261  H 14  S   -0.000071  -0.000039  -0.000210   0.000242  -0.000146
  262  H 14  S   -0.000087  -0.000027   0.000369  -0.000470   0.000148
  263  H 15  S    0.000001   0.000009   0.000017   0.000002  -0.000025
  264  H 15  S   -0.000050   0.000081  -0.000021   0.000069  -0.000021
  265  H 15  S   -0.000001   0.000012   0.000029   0.000073   0.000020
  266  H 16  S    0.000001   0.000009  -0.000017  -0.000002  -0.000025
  267  H 16  S   -0.000050   0.000081   0.000021  -0.000069  -0.000021
  268  H 16  S   -0.000001   0.000012  -0.000029  -0.000073   0.000020
  269  H 17  S    0.000001  -0.000009   0.000017  -0.000002  -0.000025
  270  H 17  S   -0.000050  -0.000081  -0.000021  -0.000069  -0.000021
  271  H 17  S   -0.000001  -0.000012   0.000029  -0.000073   0.000020
  272  H 18  S    0.000001  -0.000009  -0.000017   0.000002  -0.000025
  273  H 18  S   -0.000050  -0.000081   0.000021   0.000069  -0.000021
  274  H 18  S   -0.000001  -0.000012  -0.000029   0.000073   0.000020

                      6          7          8          9         10
                  -11.2312   -11.2294   -11.2294   -11.2278   -11.2278
                     B2U        B3U        AG         B1G        B2U 
    1  C  1  S    0.320682  -0.000000   0.019419  -0.000000   0.008794
    2  C  1  S    0.264977  -0.000000   0.016084  -0.000000   0.007262
    3  C  1  X   -0.000000  -0.000006   0.000000  -0.000044  -0.000000
    4  C  1  Y    0.000081  -0.000000   0.000033  -0.000000   0.000002
    5  C  1  Z   -0.000000  -0.000000   0.000000  -0.000000  -0.000000
    6  C  1  S    0.003220  -0.000000  -0.000099  -0.000000   0.001098
    7  C  1  X   -0.000000  -0.000233   0.000000   0.000135  -0.000000
    8  C  1  Y   -0.000423  -0.000000   0.000020  -0.000000   0.000049
    9  C  1  Z   -0.000000  -0.000000   0.000000  -0.000000  -0.000000
   10  C  1  S    0.002086  -0.000000  -0.000204  -0.000000  -0.001810
   11  C  1  X   -0.000000  -0.000122   0.000000  -0.000691  -0.000000
   12  C  1  Y   -0.002125  -0.000000   0.000172  -0.000000  -0.000525
   13  C  1  Z   -0.000000  -0.000000   0.000000  -0.000000  -0.000000
   14  C  1 XX   -0.000536  -0.000000  -0.000047  -0.000000  -0.000025
   15  C  1 YY   -0.000682  -0.000000  -0.000003  -0.000000  -0.000028
   16  C  1 ZZ   -0.000880  -0.000000  -0.000021  -0.000000  -0.000010
   17  C  1 XY   -0.000000   0.000003   0.000000   0.000013  -0.000000
   18  C  1 XZ   -0.000000  -0.000000   0.000000  -0.000000  -0.000000
   19  C  1 YZ   -0.000000  -0.000000   0.000000  -0.000000  -0.000000
   20  C  1 XX   -0.000933  -0.000000  -0.000035  -0.000000   0.000640
   21  C  1 YY   -0.001018  -0.000000  -0.000086  -0.000000   0.000920
   22  C  1 ZZ   -0.001025  -0.000000  -0.000147  -0.000000   0.000275
   23  C  1 XY   -0.000000   0.000041   0.000000  -0.000292  -0.000000
   24  C  1 XZ   -0.000000  -0.000000   0.000000  -0.000000  -0.000000
   25  C  1 YZ   -0.000000  -0.000000   0.000000  -0.000000  -0.000000
   26  C  2  S   -0.320682  -0.000000   0.019419  -0.000000  -0.008794
   27  C  2  S   -0.264977  -0.000000   0.016084  -0.000000  -0.007262
   28  C  2  X   -0.000000  -0.000006   0.000000   0.000044  -0.000000
   29  C  2  Y    0.000081  -0.000000  -0.000033  -0.000000   0.000002
   30  C  2  Z   -0.000000  -0.000000   0.000000  -0.000000  -0.000000
   31  C  2  S   -0.003220  -0.000000  -0.000099  -0.000000  -0.001098
   32  C  2  X   -0.000000  -0.000233   0.000000  -0.000135  -0.000000
   33  C  2  Y   -0.000423  -0.000000  -0.000020  -0.000000   0.000049
   34  C  2  Z   -0.000000  -0.000000   0.000000  -0.000000  -0.000000
   35  C  2  S   -0.002086  -0.000000  -0.000204  -0.000000   0.001810
   36  C  2  X   -0.000000  -0.000122   0.000000   0.000691  -0.000000
   37  C  2  Y   -0.002125  -0.000000  -0.000172  -0.000000  -0.000525
   38  C  2  Z   -0.000000  -0.000000   0.000000  -0.000000  -0.000000
   39  C  2 XX    0.000536  -0.000000  -0.000047  -0.000000   0.000025
   40  C  2 YY    0.000682  -0.000000  -0.000003  -0.000000   0.000028
   41  C  2 ZZ    0.000880  -0.000000  -0.000021  -0.000000   0.000010
   42  C  2 XY   -0.000000  -0.000003   0.000000   0.000013  -0.000000
   43  C  2 XZ   -0.000000  -0.000000   0.000000  -0.000000  -0.000000
   44  C  2 YZ   -0.000000  -0.000000   0.000000  -0.000000  -0.000000
   45  C  2 XX    0.000933  -0.000000  -0.000035  -0.000000  -0.000640
   46  C  2 YY    0.001018  -0.000000  -0.000086  -0.000000  -0.000920
   47  C  2 ZZ    0.001025  -0.000000  -0.000147  -0.000000  -0.000275
   48  C  2 XY   -0.000000  -0.000041   0.000000  -0.000292  -0.000000
   49  C  2 XZ   -0.000000  -0.000000   0.000000  -0.000000  -0.000000
   50  C  2 YZ   -0.000000  -0.000000   0.000000  -0.000000  -0.000000
   51  C  3  S   -0.165888  -0.042271  -0.046579  -0.027851  -0.029229
   52  C  3  S   -0.137085  -0.034929  -0.038483  -0.023022  -0.024150
   53  C  3  X   -0.000156   0.000056   0.000039   0.000054   0.000040
   54  C  3  Y    0.000075   0.000030   0.000039   0.000040   0.000053
   55  C  3  Z   -0.000000  -0.000000   0.000000  -0.000000  -0.000000
   56  C  3  S   -0.001675  -0.000024  -0.000217  -0.000167  -0.000569
   57  C  3  X   -0.000137   0.000184   0.000228   0.000280   0.000303
   58  C  3  Y   -0.000027   0.000129   0.000093   0.000132   0.000064
   59  C  3  Z   -0.000000  -0.000000   0.000000  -0.000000  -0.000000
   60  C  3  S   -0.001791  -0.000667  -0.000433   0.000646   0.000305
   61  C  3  X    0.000670   0.000092  -0.000174   0.000385   0.000042
   62  C  3  Y    0.000419   0.000225   0.000157   0.000600   0.000223
   63  C  3  Z   -0.000000  -0.000000   0.000000  -0.000000  -0.000000
   64  C  3 XX    0.000339   0.000150   0.000158   0.000125   0.000145
   65  C  3 YY    0.000277   0.000090   0.000106   0.000071   0.000084
   66  C  3 ZZ    0.000438   0.000129   0.000147   0.000071   0.000083
   67  C  3 XY   -0.000046   0.000049   0.000058   0.000059   0.000059
   68  C  3 XZ   -0.000000  -0.000000   0.000000  -0.000000  -0.000000
   69  C  3 YZ   -0.000000  -0.000000   0.000000  -0.000000  -0.000000
   70  C  3 XX    0.000135   0.000409   0.000333  -0.000101  -0.000440
   71  C  3 YY    0.000546   0.000400   0.000305   0.000171  -0.000052
   72  C  3 ZZ    0.000511   0.000253   0.000215   0.000161   0.000035
   73  C  3 XY    0.000100  -0.000026  -0.000046   0.000092  -0.000007
   74  C  3 XZ   -0.000000  -0.000000   0.000000  -0.000000  -0.000000
   75  C  3 YZ   -0.000000  -0.000000   0.000000  -0.000000  -0.000000
   76  C  4  S   -0.165888   0.042271  -0.046579   0.027851  -0.029229
   77  C  4  S   -0.137085   0.034929  -0.038483   0.023022  -0.024150
   78  C  4  X    0.000156   0.000056  -0.000039   0.000054  -0.000040
   79  C  4  Y    0.000075  -0.000030   0.000039  -0.000040   0.000053
   80  C  4  Z   -0.000000  -0.000000   0.000000  -0.000000  -0.000000
   81  C  4  S   -0.001675   0.000024  -0.000217   0.000167  -0.000569
   82  C  4  X    0.000137   0.000184  -0.000228   0.000280  -0.000303
   83  C  4  Y   -0.000027  -0.000129   0.000093  -0.000132   0.000064
   84  C  4  Z   -0.000000  -0.000000   0.000000  -0.000000  -0.000000
   85  C  4  S   -0.001791   0.000667  -0.000433  -0.000646   0.000305
   86  C  4  X   -0.000670   0.000092   0.000174   0.000385  -0.000042
   87  C  4  Y    0.000419  -0.000225   0.000157  -0.000600   0.000223
   88  C  4  Z   -0.000000  -0.000000   0.000000  -0.000000  -0.000000
   89  C  4 XX    0.000339  -0.000150   0.000158  -0.000125   0.000145
   90  C  4 YY    0.000277  -0.000090   0.000106  -0.000071   0.000084
   91  C  4 ZZ    0.000438  -0.000129   0.000147  -0.000071   0.000083
   92  C  4 XY    0.000046   0.000049  -0.000058   0.000059  -0.000059
   93  C  4 XZ   -0.000000  -0.000000   0.000000  -0.000000  -0.000000
   94  C  4 YZ   -0.000000  -0.000000   0.000000  -0.000000  -0.000000
   95  C  4 XX    0.000135  -0.000409   0.000333   0.000101  -0.000440
   96  C  4 YY    0.000546  -0.000400   0.000305  -0.000171  -0.000052
   97  C  4 ZZ    0.000511  -0.000253   0.000215  -0.000161   0.000035
   98  C  4 XY   -0.000100  -0.000026   0.000046   0.000092   0.000007
   99  C  4 XZ   -0.000000  -0.000000   0.000000  -0.000000  -0.000000
  100  C  4 YZ   -0.000000  -0.000000   0.000000  -0.000000  -0.000000
  101  C  5  S    0.165888  -0.042271  -0.046579   0.027851   0.029229
  102  C  5  S    0.137085  -0.034929  -0.038483   0.023022   0.024150
[...]
                   Y  0.00000000  0.00000000  0.00041109  0.00052529  0.00000000
                   Z  0.00000000 -0.00000000 -0.00000000 -0.00000000  0.00000000
  3   C            X  0.02311168  0.00009324  0.00120599 -0.00180104  0.00044507
                   Y -0.00333974 -0.02711137 -0.02116325  0.03630970  0.03060362
                   Z -0.00000000  0.00000000 -0.00000000  0.00000000 -0.00000000
  4   C            X  0.02311168  0.00009324 -0.00120599  0.00180104  0.00044507
                   Y  0.00333974  0.02711137 -0.02116325  0.03630970 -0.03060362
                   Z -0.00000000  0.00000000 -0.00000000  0.00000000  0.00000000
  5   C            X  0.02311168 -0.00009324 -0.00120599 -0.00180104 -0.00044507
                   Y  0.00333974 -0.02711137 -0.02116325 -0.03630970  0.03060362
                   Z  0.00000000 -0.00000000 -0.00000000 -0.00000000  0.00000000
  6   C            X  0.02311168 -0.00009324  0.00120599  0.00180104 -0.00044507
                   Y -0.00333974  0.02711137 -0.02116325 -0.03630970 -0.03060362
                   Z  0.00000000  0.00000000  0.00000000  0.00000000 -0.00000000
  7   C            X  0.02197969 -0.02543230 -0.02999804  0.01613275 -0.02451173
                   Y  0.04098381  0.01572316  0.01790816 -0.01236007  0.01292541
                   Z  0.00000000 -0.00000000 -0.00000000 -0.00000000  0.00000000
  8   C            X  0.02197969 -0.02543230  0.02999804 -0.01613275 -0.02451173
                   Y -0.04098381 -0.01572316  0.01790816 -0.01236007 -0.01292541
                   Z  0.00000000 -0.00000000  0.00000000 -0.00000000 -0.00000000
  9   C            X  0.02197969  0.02543230  0.02999804  0.01613275  0.02451173
                   Y -0.04098381  0.01572316  0.01790816  0.01236007  0.01292541
                   Z -0.00000000 -0.00000000 -0.00000000  0.00000000  0.00000000
 10   C            X  0.02197969  0.02543230 -0.02999804 -0.01613275  0.02451173
                   Y  0.04098381 -0.01572316  0.01790816  0.01236007 -0.01292541
                   Z -0.00000000  0.00000000  0.00000000 -0.00000000  0.00000000
 11   H            X -0.00400071 -0.00615579 -0.00631500  0.00947422  0.00369326
                   Y -0.41410356  0.31948121  0.24638400 -0.41989841 -0.35496968
                   Z  0.00000000  0.00000000  0.00000000 -0.00000000  0.00000000
 12   H            X -0.00400071 -0.00615579  0.00631500 -0.00947422  0.00369326
                   Y  0.41410356 -0.31948121  0.24638400 -0.41989841  0.35496968
                   Z  0.00000000 -0.00000000 -0.00000000  0.00000000  0.00000000
 13   H            X -0.00400071  0.00615579  0.00631500  0.00947422 -0.00369326
                   Y  0.41410356  0.31948121  0.24638400  0.41989841 -0.35496968
                   Z -0.00000000 -0.00000000  0.00000000 -0.00000000 -0.00000000
 14   H            X -0.00400071  0.00615579 -0.00631500 -0.00947422 -0.00369326
                   Y -0.41410356 -0.31948121  0.24638400  0.41989841  0.35496968
                   Z -0.00000000  0.00000000 -0.00000000  0.00000000 -0.00000000
 15   H            X -0.02263226  0.30496978  0.35113897 -0.19213038  0.27532717
                   Y  0.00837282 -0.18316436 -0.21007361  0.11867733 -0.16104598
                   Z  0.00000000  0.00000000 -0.00000000 -0.00000000 -0.00000000
 16   H            X -0.02263226  0.30496978 -0.35113897  0.19213038  0.27532717
                   Y -0.00837282  0.18316436 -0.21007361  0.11867733  0.16104598
                   Z  0.00000000 -0.00000000 -0.00000000 -0.00000000  0.00000000
 17   H            X -0.02263226 -0.30496978 -0.35113897 -0.19213038 -0.27532717
                   Y -0.00837282 -0.18316436 -0.21007361 -0.11867733 -0.16104598
                   Z -0.00000000 -0.00000000  0.00000000 -0.00000000 -0.00000000
 18   H            X -0.02263226 -0.30496978  0.35113897  0.19213038 -0.27532717
                   Y  0.00837282  0.18316436 -0.21007361 -0.11867733  0.16104598
                   Z -0.00000000 -0.00000000  0.00000000  0.00000000 -0.00000000

 TRANS. SAYVETZ    X -0.00000011  0.00000000  0.00000000  0.00000000  0.00000000
                   Y -0.00000000 -0.00000000 -0.00000000  0.00000000 -0.00000000
                   Z  0.00000000 -0.00000000 -0.00000000 -0.00000000  0.00000000
               TOTAL  0.00000011  0.00000000  0.00000000  0.00000000  0.00000000

   ROT. SAYVETZ    X -0.00000000 -0.00000000  0.00000000  0.00000000  0.00000000
                   Y  0.00000000  0.00000000  0.00000000  0.00000000 -0.00000000
                   Z -0.00000000 -0.00005128 -0.00000000  0.00000000  0.00007463
               TOTAL  0.00000000  0.00005128  0.00000000  0.00000000  0.00007463

                           51          52          53          54
       FREQUENCY:      3319.69     3329.44     3335.88     3676.69  
        SYMMETRY:         B2U         B3U         AG          B3U 
    REDUCED MASS:      1.09096     1.10263     1.09851     3.27856
    IR INTENSITY:      2.01569     1.75616     0.00000     8.18130

  1   C            X  0.00000000 -0.00579092 -0.00000000  0.11305090
                   Y  0.00156603  0.00000000  0.00038247 -0.00000000
                   Z  0.00000000 -0.00000000 -0.00000000  0.00000000
  2   C            X  0.00000000 -0.00579092 -0.00000000  0.11305090
                   Y  0.00156603  0.00000000 -0.00038247 -0.00000000
                   Z  0.00000000 -0.00000000 -0.00000000  0.00000000
  3   C            X  0.00077138  0.00312866 -0.00082818 -0.02933740
                   Y -0.03576045 -0.00162632 -0.02017931  0.07141056
                   Z -0.00000000  0.00000000 -0.00000000 -0.00000000
  4   C            X -0.00077138  0.00312866  0.00082818 -0.02933740
                   Y -0.03576045  0.00162632 -0.02017931 -0.07141056
                   Z -0.00000000 -0.00000000 -0.00000000 -0.00000000
  5   C            X -0.00077138  0.00312866 -0.00082818 -0.02933740
                   Y -0.03576045  0.00162632  0.02017931 -0.07141056
                   Z  0.00000000 -0.00000000  0.00000000 -0.00000000
  6   C            X  0.00077138  0.00312866  0.00082818 -0.02933740
                   Y -0.03576045 -0.00162632  0.02017931  0.07141056
                   Z -0.00000000 -0.00000000  0.00000000 -0.00000000
  7   C            X  0.01894644 -0.03397252  0.03163627 -0.02975374
                   Y -0.00966989  0.02778797 -0.02164974 -0.05016427
                   Z  0.00000000 -0.00000000  0.00000000  0.00000000
  8   C            X -0.01894644 -0.03397252 -0.03163627 -0.02975374
                   Y -0.00966989 -0.02778797 -0.02164974  0.05016427
                   Z  0.00000000  0.00000000 -0.00000000  0.00000000
  9   C            X -0.01894644 -0.03397252  0.03163627 -0.02975374
                   Y -0.00966989 -0.02778797  0.02164974  0.05016427
                   Z  0.00000000 -0.00000000  0.00000000 -0.00000000
 10   C            X  0.01894644 -0.03397252 -0.03163627 -0.02975374
                   Y -0.00966989  0.02778797  0.02164974 -0.05016427
                   Z -0.00000000  0.00000000 -0.00000000 -0.00000000
 11   H            X -0.00619426 -0.00372330 -0.00136389  0.01169268
                   Y  0.40824148 -0.00644309  0.22601494 -0.24486216
                   Z  0.00000000  0.00000000  0.00000000  0.00000000
 12   H            X  0.00619426 -0.00372330  0.00136389  0.01169268
                   Y  0.40824148  0.00644309  0.22601494  0.24486216
                   Z  0.00000000 -0.00000000  0.00000000 -0.00000000
 13   H            X  0.00619426 -0.00372330 -0.00136389  0.01169268
                   Y  0.40824148  0.00644309 -0.22601494  0.24486216
                   Z -0.00000000  0.00000000 -0.00000000  0.00000000
 14   H            X -0.00619426 -0.00372330  0.00136389  0.01169268
                   Y  0.40824148 -0.00644309 -0.22601494 -0.24486216
                   Z -0.00000000  0.00000000  0.00000000 -0.00000000
 15   H            X -0.21331747  0.40545161 -0.35819193  0.01885660
                   Y  0.12336662 -0.24561901  0.21521491 -0.00714845
                   Z  0.00000000  0.00000000 -0.00000000  0.00000000
 16   H            X  0.21331747  0.40545161  0.35819193  0.01885660
                   Y  0.12336662  0.24561901  0.21521491  0.00714845
                   Z  0.00000000 -0.00000000 -0.00000000  0.00000000
 17   H            X  0.21331747  0.40545161 -0.35819193  0.01885660
                   Y  0.12336662  0.24561901 -0.21521491  0.00714845
                   Z -0.00000000 -0.00000000 -0.00000000  0.00000000
 18   H            X -0.21331747  0.40545161  0.35819193  0.01885660
                   Y  0.12336662 -0.24561901 -0.21521491 -0.00714845
                   Z -0.00000000  0.00000000  0.00000000  0.00000000

 TRANS. SAYVETZ    X -0.00000000 -0.00000001 -0.00000000  0.00000018
                   Y -0.00000001 -0.00000000 -0.00000000 -0.00000000
                   Z  0.00000000 -0.00000000  0.00000000 -0.00000000
               TOTAL  0.00000001  0.00000001  0.00000000  0.00000018

   ROT. SAYVETZ    X -0.00000000  0.00000000  0.00000000 -0.00000000
                   Y -0.00000000  0.00000000 -0.00000000  0.00000000
                   Z  0.00000000 -0.00000000 -0.00000000 -0.00000000
               TOTAL  0.00000000  0.00000000  0.00000000  0.00000000

 REFERENCE ON SAYVETZ CONDITIONS - A. SAYVETZ, J.CHEM.PHYS., 7, 383-389(1939).

 NOTE - THE MODES J,K ARE ORTHONORMALIZED ACCORDING TO
 SUM ON I   M(I) * (X(I,J)*X(I,K) + Y(I,J)*Y(I,K) + Z(I,J)*Z(I,K)) = DELTA(J,K)

  MODE FREQ(CM**-1)  SYMMETRY  RED. MASS  IR INTENS.
     1       8.899    B3G      3.857516    0.000000
     2       1.872    B1U      7.075238    0.000006
     3       0.012    B3U      7.114589    0.000000
     4       0.002    B2U      7.114589    0.000000
     5       1.951    B1G      4.657629    0.000000
     6      12.582    B2G      5.050114    0.000000
     7     181.911    AU       3.835740    0.000000
     8     182.900    B1U      3.823508    0.087316
     9     313.427    B2G      3.063366    0.000000
    10     390.426    B2U      3.937298    0.004081
    11     408.910    B1U      2.448122    0.296678
    12     491.774    B1G      6.916389    0.000000
    13     528.129    B3G      3.402729    0.000000
    14     538.534    AG       6.766178    0.000000
    15     581.517    AU       2.403086    0.000000
    16     637.453    B3U      6.522460    0.652844
    17     771.013    B2G      1.107581    0.000000
    18     780.046    B3G      2.504093    0.000000
    19     781.148    B1U      1.260681    3.592096
    20     785.989    AG       4.939531    0.000000
    21     809.192    AU       1.434486    0.000000
    22     868.821    B2U      4.647272    0.249474
    23     876.565    B2G      1.381566    0.000000
    24     876.747    B3G      1.989932    0.000000
    25     896.448    B1U      1.587566    0.004187
    26     958.746    B1G      5.065427    0.000000
    27    1067.127    AU       1.286692    0.000000
    28    1067.207    B3G      1.282907    0.000000
    29    1084.331    B1G      1.987984    0.000000
    30    1104.370    B3U      2.483204    0.111556
    31    1111.918    AG       2.086413    0.000000
    32    1128.267    B2U      2.155356    0.003774
    33    1210.368    B1G      5.340318    0.000000
    34    1277.861    AG       1.089003    0.000000
    35    1288.161    B3U      1.068357    0.003282
    36    1393.030    B2U      2.131827    0.189774
    37    1475.147    B3U      1.472945    0.131108
    38    1486.374    B1G      1.463330    0.000000
    39    1505.210    AG       6.234079    0.000000
    40    1532.518    B2U      1.613429    0.208626
    41    1540.844    B1G      1.622740    0.000000
    42    1584.850    AG       2.121506    0.000000
    43    1592.443    B2U      2.583648    0.186476
    44    1668.091    B3U      6.742007    0.173107
    45    1802.423    AG       5.581653    0.000000
    46    3138.774    B3U      1.400865    2.376143
    47    3294.267    B1G      1.085583    0.000000
    48    3298.219    B2U      1.087692    0.053887
    49    3310.100    AG       1.091047    0.000000
    50    3314.423    B1G      1.089500    0.000000
    51    3319.688    B2U      1.090959    2.015691
    52    3329.439    B3U      1.102630    1.756158
    53    3335.878    AG       1.098510    0.000000
    54    3676.685    B3U      3.278559    8.181296

     -------------------------------
     THERMOCHEMISTRY AT T=  298.15 K
     -------------------------------

 USING IDEAL GAS, RIGID ROTOR, HARMONIC NORMAL MODE APPROXIMATIONS.
 P=  1.01325E+05 PASCAL.
 ALL FREQUENCIES ARE SCALED BY   1.00000
 THE MOMENTS OF INERTIA ARE (IN AMU*BOHR**2)
            562.59443          1489.18951          2051.78393
 THE ROTATIONAL SYMMETRY NUMBER IS  4.0
 THE ROTATIONAL CONSTANTS ARE (IN GHZ)
      3.20495     1.21078     0.87879
      7 -     54 VIBRATIONAL MODES ARE USED IN THERMOCHEMISTRY.
 THE HARMONIC ZERO POINT ENERGY IS (SCALED BY   1.000)
        0.156277 HARTREE/MOLECULE    34298.852558 CM**-1/MOLECULE 
       98.065439 KCAL/MOL              410.305796 KJ/MOL

               Q               LN Q
 ELEC.     3.00000E+00       1.098612
 TRANS.    5.69623E+07      17.857900
 ROT.      1.17333E+05      11.672771
 VIB.      9.27014E+00       2.226799
 TOT.      1.85872E+14      32.856081

              E         H         G         CV        CP        S
           KJ/MOL    KJ/MOL    KJ/MOL   J/MOL-K   J/MOL-K   J/MOL-K
 ELEC.      0.000     0.000    -2.723     0.000     0.000     9.134
 TRANS.     3.718     6.197   -44.269    12.472    20.786   169.264
 ROT.       3.718     3.718   -28.936    12.472    12.472   109.524
 VIB.     420.991   420.991   404.786    95.202    95.202    54.352
 TOTAL    428.428   430.907   328.858   120.145   128.460   342.274
 VIB. THERMAL CORRECTION E(T)-E(0) = H(T)-H(0) =     10684.993 J/MOL

              E         H         G         CV        CP        S
         KCAL/MOL  KCAL/MOL  KCAL/MOL CAL/MOL-K CAL/MOL-K CAL/MOL-K
 ELEC.      0.000     0.000    -0.651     0.000     0.000     2.183
 TRANS.     0.889     1.481   -10.580     2.981     4.968    40.455
 ROT.       0.889     0.889    -6.916     2.981     2.981    26.177
 VIB.     100.619   100.619    96.746    22.754    22.754    12.990
 TOTAL    102.397   102.989    78.599    28.715    30.703    81.805
 VIB. THERMAL CORRECTION E(T)-E(0) = H(T)-H(0) =      2553.775 CAL/MOL
 ......END OF NORMAL COORDINATE ANALYSIS......
 CPU     0: STEP CPU TIME=     0.02 TOTAL CPU TIME=        337.9 (      5.6 MIN)
 TOTAL WALL CLOCK TIME=        402.1 SECONDS, CPU UTILIZATION IS    84.04%
             15153954  WORDS OF DYNAMIC MEMORY USED
 EXECUTION OF GAMESS TERMINATED NORMALLY 20:20:15 16-JAN-2022    
 DDI: 20745728 bytes (19.8 MB / 2 MWords) used by master data server.

 ----------------------------------------
 CPU timing information for all processes
 ========================================
 0: 329.124 + 8.868 = 337.992
 1: 211.144 + 5.545 = 216.690
 2: 207.957 + 6.669 = 214.627
 3: 208.131 + 5.607 = 213.739
 4: 209.553 + 8.571 = 218.124
 5: 202.999 + 6.167 = 209.166
 6: 213.125 + 7.162 = 220.288
 7: 203.18 + 5.904 = 208.922
 8: 208.972 + 9.73 = 218.45
 9: 211.849 + 6.781 = 218.630
 10: 210.996 + 7.843 = 218.839
 11: 198.922 + 5.978 = 204.900
 12: 212.748 + 8.744 = 221.493
 13: 207.163 + 6.595 = 213.758
 14: 208.733 + 7.974 = 216.708
 15: 197.160 + 5.363 = 202.523
 16: 209.979 + 8.179 = 218.159
 17: 205.786 + 4.642 = 210.429
 18: 204.298 + 5.920 = 210.219
 19: 204.572 + 4.826 = 209.398
 20: 206.327 + 6.655 = 212.983
 21: 204.294 + 4.947 = 209.242
 22: 208.469 + 6.881 = 215.351
 23: 196.237 + 4.560 = 200.797
 24: 208.953 + 8.198 = 217.152
 25: 197.145 + 4.611 = 201.757
 26: 203.154 + 6.680 = 209.835
 27: 196.395 + 4.899 = 201.295
 28: 204.62 + 8.322 = 212.385
 29: 187.96 + 4.710 = 191.806
 30: 192.157 + 6.840 = 198.997
 31: 192.310 + 4.446 = 196.756
 ----------------------------------------
 ddikick.x: exited gracefully.
----- accounting info -----
Files used on the master node logoc were:
-rw-r--r-- 1 root root  1217558 янв 16 20:13 /media/arthur/temp/naphthalene_mc_1TB2u_hess.F05
-rw-r--r-- 1 root root   301408 янв 16 20:20 /media/arthur/temp/naphthalene_mc_1TB2u_hess.F09
-rw-r--r-- 1 root root 13873280 янв 16 20:20 /media/arthur/temp/naphthalene_mc_1TB2u_hess.F10
-rw-r--r-- 1 root root      472 янв 16 20:13 /media/arthur/temp/naphthalene_mc_1TB2u_hess.F12
-rw-r--r-- 1 root root   245352 янв 16 20:13 /media/arthur/temp/naphthalene_mc_1TB2u_hess.F15
-rw-r--r-- 1 root root        0 янв 16 20:13 /media/arthur/temp/naphthalene_mc_1TB2u_hess.F16
-rw-r--r-- 1 root root 32433264 янв 16 20:15 /media/arthur/temp/naphthalene_mc_1TB2u_hess.F18
-rw-r--r-- 1 root root     1296 янв 16 20:15 /media/arthur/temp/naphthalene_mc_1TB2u_hess.F19
-rw-r--r-- 1 root root     1296 янв 16 20:15 /media/arthur/temp/naphthalene_mc_1TB2u_hess.F19.001
-rw-r--r-- 1 root root     1296 янв 16 20:15 /media/arthur/temp/naphthalene_mc_1TB2u_hess.F19.002
-rw-r--r-- 1 root root     1296 янв 16 20:15 /media/arthur/temp/naphthalene_mc_1TB2u_hess.F19.003
-rw-r--r-- 1 root root     1296 янв 16 20:15 /media/arthur/temp/naphthalene_mc_1TB2u_hess.F19.004
-rw-r--r-- 1 root root     1296 янв 16 20:15 /media/arthur/temp/naphthalene_mc_1TB2u_hess.F19.005
-rw-r--r-- 1 root root     1296 янв 16 20:15 /media/arthur/temp/naphthalene_mc_1TB2u_hess.F19.006
-rw-r--r-- 1 root root     1296 янв 16 20:15 /media/arthur/temp/naphthalene_mc_1TB2u_hess.F19.007
-rw-r--r-- 1 root root     1296 янв 16 20:15 /media/arthur/temp/naphthalene_mc_1TB2u_hess.F19.008
-rw-r--r-- 1 root root     1296 янв 16 20:15 /media/arthur/temp/naphthalene_mc_1TB2u_hess.F19.009
-rw-r--r-- 1 root root     1296 янв 16 20:15 /media/arthur/temp/naphthalene_mc_1TB2u_hess.F19.010
-rw-r--r-- 1 root root     1296 янв 16 20:15 /media/arthur/temp/naphthalene_mc_1TB2u_hess.F19.011
-rw-r--r-- 1 root root     1296 янв 16 20:15 /media/arthur/temp/naphthalene_mc_1TB2u_hess.F19.012
-rw-r--r-- 1 root root     1296 янв 16 20:15 /media/arthur/temp/naphthalene_mc_1TB2u_hess.F19.013
-rw-r--r-- 1 root root     1296 янв 16 20:15 /media/arthur/temp/naphthalene_mc_1TB2u_hess.F19.014
-rw-r--r-- 1 root root     1296 янв 16 20:15 /media/arthur/temp/naphthalene_mc_1TB2u_hess.F19.015
-rw-r--r-- 1 root root     1296 янв 16 20:15 /media/arthur/temp/naphthalene_mc_1TB2u_hess.F19.016
-rw-r--r-- 1 root root     1296 янв 16 20:15 /media/arthur/temp/naphthalene_mc_1TB2u_hess.F19.017
-rw-r--r-- 1 root root     1296 янв 16 20:15 /media/arthur/temp/naphthalene_mc_1TB2u_hess.F19.018
-rw-r--r-- 1 root root     1296 янв 16 20:15 /media/arthur/temp/naphthalene_mc_1TB2u_hess.F19.019
-rw-r--r-- 1 root root     1296 янв 16 20:15 /media/arthur/temp/naphthalene_mc_1TB2u_hess.F19.020
-rw-r--r-- 1 root root     1296 янв 16 20:15 /media/arthur/temp/naphthalene_mc_1TB2u_hess.F19.021
-rw-r--r-- 1 root root     1296 янв 16 20:15 /media/arthur/temp/naphthalene_mc_1TB2u_hess.F19.022
-rw-r--r-- 1 root root     1296 янв 16 20:15 /media/arthur/temp/naphthalene_mc_1TB2u_hess.F19.023
-rw-r--r-- 1 root root     1296 янв 16 20:15 /media/arthur/temp/naphthalene_mc_1TB2u_hess.F19.024
-rw-r--r-- 1 root root     1296 янв 16 20:15 /media/arthur/temp/naphthalene_mc_1TB2u_hess.F19.025
-rw-r--r-- 1 root root     1296 янв 16 20:15 /media/arthur/temp/naphthalene_mc_1TB2u_hess.F19.026
-rw-r--r-- 1 root root     1296 янв 16 20:15 /media/arthur/temp/naphthalene_mc_1TB2u_hess.F19.027
-rw-r--r-- 1 root root     1296 янв 16 20:15 /media/arthur/temp/naphthalene_mc_1TB2u_hess.F19.028
-rw-r--r-- 1 root root     1296 янв 16 20:15 /media/arthur/temp/naphthalene_mc_1TB2u_hess.F19.029
-rw-r--r-- 1 root root     1296 янв 16 20:15 /media/arthur/temp/naphthalene_mc_1TB2u_hess.F19.030
-rw-r--r-- 1 root root     1296 янв 16 20:15 /media/arthur/temp/naphthalene_mc_1TB2u_hess.F19.031
Вс янв 16 20:20:18 MSK 2022
0.1u 0.0s 6:45.40 0.0% 0+0k 0+2384io 0pf+0w
