----- GAMESS execution script 'rungms' -----
This job is running on host logoc
under operating system Linux at Вс янв 16 19:49:31 MSK 2022
Available scratch disk space (Kbyte units) at beginning of the job is
Файл.система   1K-блоков Использовано  Доступно Использовано% Cмонтировано в
/dev/nvme0n1   491208944     41560776 424626404            9% /media/arthur/temp
GAMESS temporary binary files will be written to /media/arthur/temp
GAMESS supplementary output files will be written to /usr/local/gamess/output
Copying input file ./naphthalene_mc_1SAg_hess.inp to your run's scratch directory...
 
Assuming a single but multicore node.
 

 Distributed Data Interface kickoff program.
 Initiating 32 compute processes on 1 nodes to run the following command:
 /usr/local/gamess/gamess.01.x naphthalene_mc_1SAg_hess 

          *******************************************************
          *                                                     *
          *          GAMESS VERSION = 30 SEP 2020 (R2)          *
          *                                                     *
          *              doi.org/10.1063/5.0005188              *
          *                                                     *
          **************** 64 BIT LINUX VERSION *****************

  GAMESS HAS BEEN MADE POSSIBLE WITH IMPORTANT CONTRIBUTIONS FROM
  THE FOLLOWING INDIVIDUALS (IN ALPHABETICAL ORDER):

     IVANA ADAMOVIC, CHRISTINE AIKENS, TOMOKO AKAMA,
     YURI ALEXEEV, YURIKO AOKI, POOJA ARORA, TOSHIO ASADA,
     ANDREY ASADCHEV, KIM K. BALDRIDGE, PRADIPTA BANDYOPADHYAY,
     MARIA BARYSZ, ROB BELL, JONATHAN BENTZ, COLLEEN BERTONI,
     JERRY A. BOATZ, BRETT BODE, KURT BRORSEN, KURT R. BRORSEN,
     LAIMUTIS BYTAUTAS, CALEB CARLIN, LAURA CARRINGTON,
     GALINA CHABAN, BENOIT CHAMPAGNE, WEI CHEN, MAHITO CHIBA,
     DAN CHIPMAN, CHEOL HO CHOI, TANNER CULPITT,
     DIPAYAN DATTA, PAUL DAY, ALBERT DEFUSCO,
     NUWAN DESILVA, J. EMILIANO DEUSTUA,
     TIM DUDLEY, MICHEL DUPUIS, STEVEN T. ELBERT,
     DMITRI FEDOROV, ALEX FINDLATER, GRAHAM FLETCHER,
     MARK FREITAG, CHRISTIAN FRIEDL, DAVID GARMER,
     IGOR S. GERASIMOV, KURT GLAESEMANN, MARK S. GORDON,
     JEFFREY GOUR, FENG LONG GU, EMILIE B. GUIDEZ,
     ANASTASIA GUNINA, SHARON HAMMES-SCHIFFER, MASATAKE HARUTA,
     KIMIHIKO HIRAO, YASUHIRO IKABATA, TZVETELIN IORDANOV,
     STEPHAN IRLE, KAZUYA ISHIMURA, JOE IVANIC, FRANK JENSEN,
     JAN H. JENSEN, VISVALDAS KAIRYS, MUNEAKI KAMIYA,
     MICHIO KATOUDA, NAOAKI KAWAKAMI, DAN KEMP, BERNARD KIRTMAN,
     KAZUO KITAURA, MARIUSZ KLOBUKOWSKI, MASATO KOBAYASHI,
     PRAKASHAN KORAMBATH, JACEK KORCHOWIEC, SHIRO KOSEKI,
     KAROL KOWALSKI, JIMMY KROMANN, STANISLAW KUCHARSKI,
     HENRY KURTZ, SAROM SOK LEANG, HUI LI, SHUHUA LI, WEI LI,
     JESSE LUTZ, ALEKSANDR O. LYKHIN, MARCIN MAKOWSKI,
     JOANI MATO, NIKITA MATSUNAGA, BENEDETTA MENNUCCI,
     GRANT MERRILL, NORIYUKI MINEZAWA, VLADIMIR MIRONOV,
     EISAKU MIYOSHI, JOHN A. MONTGOMERY JR., HIROTOSHI MORI,
     JONATHAN MULLIN, MONIKA MUSIAL, SHIGERU NAGASE,
     TAKESHI NAGATA, HIROMI NAKAI, TAKAHITO NAKAJIMA,
     YUYA NAKAJIMA, HARUYUKI NAKANO, HIROYA NAKATA, SEAN NEDD,
     HEATHER NETZLOFF, KIET A. NGUYEN, YOSHIO NISHIMOTO,
     BOSILJKA NJEGIC, RYAN OLSON, MIKE PAK, ROBERTO PEVERATI,
     BUU PHAM, PIOTR PIECUCH, ANNA POMOGAEVA, DAVID POOLE,
     SPENCER PRUITT, OLIVIER QUINET, LUKE ROSKOP,
     KLAUS RUEDENBERG, ANDREW SAND, TOSAPORN SATTASATHUCHANA,
     NOZOMI SAWADA, MICHAEL W. SCHMIDT, PATRICK E. SCHNEIDER,
     JUNJI SEINO, PRACHI SHARMA, JUN SHEN, JIM SHOEMAKER,
     YINAN SHU, DEJUN SI, JONATHAN SKONE, LYUDMILA SLIPCHENKO,
     TONY SMITH, JIE SONG, MARK SPACKMAN, CASPER STEINMANN,
     WALT STEVENS, PEIFENG SU, SHUJUN SU, CHET SWALINA,
     TETSUYA TAKETSUGU, ZHEN TAO, NANDUN THELLAMUREGE
     SEIKEN TOKURA, JACOPO TOMASI, TSUGUKI TOUMA, TAKAO TSUNEDA,
     HIROAKI UMEDA, JORGE LUIS GALVEZ VALLEJO, YALI WANG,
     SIMON WEBB, AARON WEST, THERESA L. WINDUS, MARTA WLOCH,
     PENG XU, KIYOSHI YAGI, SUSUMU YANAGISAWA, YANG YANG,
     SOOHAENG YOO, TAKESHI YOSHIKAWA, FEDERICO ZAHARIEV,
     TOBY ZENG

  WHO ARE SUPPORTED BY THEIR INSTITUTION/UNIVERSITY/COMPANY/GROUP
  (IN ALPHABETICAL ORDER):

     EP ANALYTICS, FACULTES UNIVERSITAIRES NOTRE-DAME DE LA PAIX,
     INSTITUTE FOR MOLECULAR SCIENCE, IOWA STATE UNIVERSITY,
     JACKSON STATE UNIVERSITY, JOHANNES KEPLER UNIVERSITY LINZ,
     KYUSHU UNIVERSITY, MICHIGAN STATE UNIVERSITY,
     MIE UNIVERSITY, MOSCOW STATE UNIVERSITY,
     N. COPERNICUS UNIVERSITY, NAGOYA UNIVERSITY,
     NANJING UNIVERSITY, NAT. INST. OF ADVANCED INDUSTRIAL
     SCIENCE AND TECHNOLOGY, NATIONAL INST. OF STANDARDS AND
     TECHNOLOGY, NESMEYANOV INSTITUTE OF ORGANOELEMENT COMPOUNDS
     OF RUSSIAN ACADEMY OF SCIENCES, OSAKA PREFECTURE UNIVERSITY,
     PENNSYLVANIA STATE UNIVERSITY, TOKYO INSTITUTE OF TECHNOLOGY,
     UNIVERSITY OF AARHUS, UNIVERSITY OF ALBERTA,
     UNIVERSITY OF CALIFORNIA AT SANTA BARBARA,
     UNIVERSITY OF COPENHAGEN, UNIVERSITY OF IOWA,
     UNIVERSITY OF MEMPHIS, UNIVERSITY OF MINNESOTA,
     UNIVERSITY OF NEBRASKA, UNIVERSITY OF NEW ENGLAND,
     UNIVERSITY OF NOTRE DAME, UNIVERSITY OF PISA,
     UNIVERSITY OF SILESIA, UNIVERSITY OF TOKYO,
     UNIVERSITY OF ZURICH, WASEDA UNIVERSITY, YALE UNIVERSITY

  GAMESS SOFTWARE MANAGEMENT TEAM FOR THIS RELEASE:
     MARK S. GORDON (TEAM LEAD),
     BRETT BODE (SENIOR ADVISOR),
     GIUSEPPE BARCA,
     COLLEEN BERTONI,
     KRISTOPHER KEIPERT (ADVISOR),
     SAROM S. LEANG (DEVELOPMENT LEAD),
     BUU PHAM,
     JORGE LUIS GALVEZ VALLEJO (WEBSITE ADMINISTRATOR),
     PENG XU


 PARALLEL VERSION RUNNING ON       32 PROCESSORS IN        1 NODES.

 EXECUTION OF GAMESS BEGUN 19:49:31 16-JAN-2022    

            ECHO OF THE FIRST FEW INPUT CARDS -
 INPUT CARD> $CONTRL SCFTYP=MCSCF RUNTYP=hessian                                            
 INPUT CARD> MAXIT=70 MULT=1 EXETYP=run $END                                                
 INPUT CARD> $SYSTEM mwords=200 memddi=400 $END                                             
 INPUT CARD> $BASIS GBASIS=N311 NGAUSS=6 NDFUNC=2 NDFUNC=2 $END                             
 INPUT CARD> $GUESS  GUESS=moread norb=274 $end                                             
 INPUT CARD> $mcscf cistep=aldet soscf=.f. fullnr=.t. maxit=150 $end                        
 INPUT CARD> $DET GROUP=D2h NCORE=31 NELS=6 NACT=5                                          
 INPUT CARD> NSTATE=1 wstate(1)=1.,0. $END                                                  
 INPUT CARD> $cpmchf gcrodr=.t. micit=20 kicit=10 reclin=.false.                            
 INPUT CARD>         prcchg=.true. prctol=1.0 $end                                          
 INPUT CARD> $DATA                                                                          
 INPUT CARD>naphthalene                                                                     
 INPUT CARD>Dnh 2                                                                           
 INPUT CARD>                                                                                
 INPUT CARD> C           6.0  -0.0000000000   0.7101087043  -0.0000000000                   
 INPUT CARD> C           6.0  -1.2366859241   1.3907258842  -0.0000000000                   
 INPUT CARD> C           6.0  -2.4072230718   0.7040490018  -0.0000000000                   
 INPUT CARD> H           1.0  -1.2387161464   2.4658211042   0.0000000000                   
 INPUT CARD> H           1.0  -3.3421882611   1.2328950964  -0.0000000000                   
 INPUT CARD> $end                                                                           
 INPUT CARD>--- OPTIMIZED MCSCF MO-S --- GENERATED AT 16:56:09 18-AUG-2021                  
 INPUT CARD>naphthalene                                                                     
 INPUT CARD>E(MCSCF)=     -383.4636443727, E(NUC)=      461.6190859137                      
 INPUT CARD> $VEC                                                                           
 INPUT CARD> 1  1 3.95955731E-01 3.27144642E-01 0.00000000E+00 1.15976108E-04 0.00000000E+00
 INPUT CARD> 1  2 4.71965449E-03 0.00000000E+00 3.60927082E-04 0.00000000E+00 2.52543271E-03
 INPUT CARD> 1  3 0.00000000E+00-7.21123000E-05 0.00000000E+00-5.83340602E-04-4.66041006E-04
 INPUT CARD> 1  4-1.05251866E-03 0.00000000E+00 0.00000000E+00 0.00000000E+00-1.18420912E-03
 INPUT CARD> 1  5-1.44873946E-03-8.14755969E-04 0.00000000E+00 0.00000000E+00 0.00000000E+00
 INPUT CARD> 1  6 3.95955731E-01 3.27144642E-01 0.00000000E+00-1.15976108E-04 0.00000000E+00
 INPUT CARD> 1  7 4.71965449E-03 0.00000000E+00-3.60927082E-04 0.00000000E+00 2.52543271E-03
 INPUT CARD> 1  8 0.00000000E+00 7.21123000E-05 0.00000000E+00-5.83340602E-04-4.66041006E-04
 INPUT CARD> 1  9-1.05251866E-03 0.00000000E+00 0.00000000E+00 0.00000000E+00-1.18420912E-03
 INPUT CARD> 1 10-1.44873946E-03-8.14755969E-04 0.00000000E+00 0.00000000E+00 0.00000000E+00
 INPUT CARD> 1 11 3.08645678E-02 2.55101115E-02-1.11956672E-04 4.46683172E-05 0.00000000E+00
 INPUT CARD> 1 12 9.09302701E-04-2.28639659E-04 1.39477882E-04 0.00000000E+00-7.02651980E-04
 INPUT CARD> 1 13 1.69836547E-04-1.21451559E-04 0.00000000E+00 8.19655735E-05-2.73256657E-05
 INPUT CARD> 1 14-4.32990195E-05-6.55570746E-05 0.00000000E+00 0.00000000E+00 2.41536629E-04
 INPUT CARD> 1 15 2.99325081E-04 1.41536703E-04 1.65777524E-04 0.00000000E+00 0.00000000E+00
 INPUT CARD> 1 16 3.08645678E-02 2.55101115E-02 1.11956672E-04 4.46683172E-05 0.00000000E+00
 INPUT CARD> 1 17 9.09302701E-04 2.28639659E-04 1.39477882E-04 0.00000000E+00-7.02651980E-04
 INPUT CARD> 1 18-1.69836547E-04-1.21451559E-04 0.00000000E+00 8.19655735E-05-2.73256657E-05
 INPUT CARD> 1 19-4.32990195E-05 6.55570746E-05 0.00000000E+00 0.00000000E+00 2.41536629E-04
 INPUT CARD> 1 20 2.99325081E-04 1.41536703E-04-1.65777524E-04 0.00000000E+00 0.00000000E+00
 INPUT CARD> 1 21 3.08645678E-02 2.55101115E-02-1.11956672E-04-4.46683172E-05 0.00000000E+00
 INPUT CARD> 1 22 9.09302701E-04-2.28639659E-04-1.39477882E-04 0.00000000E+00-7.02651980E-04
 INPUT CARD> 1 23 1.69836547E-04 1.21451559E-04 0.00000000E+00 8.19655735E-05-2.73256657E-05
 INPUT CARD> 1 24-4.32990195E-05 6.55570746E-05 0.00000000E+00 0.00000000E+00 2.41536629E-04
 INPUT CARD> 1 25 2.99325081E-04 1.41536703E-04-1.65777524E-04 0.00000000E+00 0.00000000E+00
 INPUT CARD> 1 26 3.08645678E-02 2.55101115E-02 1.11956672E-04-4.46683172E-05 0.00000000E+00
  200000000 WORDS OF MEMORY AVAILABLE

     BASIS OPTIONS
     -------------
     GBASIS=N311         IGAUSS=       6      POLAR=POPN311 
     NDFUNC=       2     NFFUNC=       0     DIFFSP=       F
     NPFUNC=       0      DIFFS=       F     BASNAM=        
     SPLIT2=     2.00000000     0.50000000


     RUN TITLE
     ---------
 naphthalene                                                                     

 THE POINT GROUP OF THE MOLECULE IS DNH     
 THE ORDER OF THE PRINCIPAL AXIS IS     2

 ATOM      ATOMIC                      COORDINATES (BOHR)
           CHARGE         X                   Y                   Z
 C           6.0    -0.0000000000       -1.3419108726        0.0000000000
 C           6.0    -0.0000000000        1.3419108726       -0.0000000000
 C           6.0     2.3369975294       -2.6280908452        0.0000000000
 C           6.0    -2.3369975294       -2.6280908452        0.0000000000
 C           6.0     2.3369975294        2.6280908452        0.0000000000
 C           6.0    -2.3369975294        2.6280908452       -0.0000000000
 C           6.0     4.5489919970       -1.3304596953        0.0000000000
 C           6.0    -4.5489919970       -1.3304596953        0.0000000000
 C           6.0     4.5489919970        1.3304596953        0.0000000000
 C           6.0    -4.5489919970        1.3304596953       -0.0000000000
 H           1.0     2.3408340933       -4.6597262217        0.0000000000
 H           1.0    -2.3408340933       -4.6597262217        0.0000000000
 H           1.0     2.3408340933        4.6597262217        0.0000000000
 H           1.0    -2.3408340933        4.6597262217        0.0000000000
 H           1.0     6.3158200129       -2.3298339038        0.0000000000
 H           1.0    -6.3158200129       -2.3298339038        0.0000000000
 H           1.0     6.3158200129        2.3298339038        0.0000000000
 H           1.0    -6.3158200129        2.3298339038       -0.0000000000

          INTERNUCLEAR DISTANCES (ANGS.)
          ------------------------------

                1 C          2 C          3 C          4 C          5 C     

   1 C       0.0000000    1.4202174 *  1.4116061 *  1.4116061 *  2.4378060 *
   2 C       1.4202174 *  0.0000000    2.4378060 *  2.4378060 *  1.4116061 *
   3 C       1.4116061 *  2.4378060 *  0.0000000    2.4733718 *  2.7814518 *
   4 C       1.4116061 *  2.4378060 *  2.4733718 *  0.0000000    3.7221019  
   5 C       2.4378060 *  1.4116061 *  2.7814518 *  3.7221019    0.0000000  
   6 C       2.4378060 *  1.4116061 *  3.7221019    2.7814518 *  2.4733718 *
   7 C       2.4072307 *  2.7918748 *  1.3570860 *  3.7080450    2.3996331 *
   8 C       2.4072307 *  2.7918748 *  3.7080450    1.3570860 *  4.2031125  
   9 C       2.7918748 *  2.4072307 *  2.3996331 *  4.2031125    1.3570860 *
  10 C       2.7918748 *  2.4072307 *  4.2031125    2.3996331 *  3.7080450  
  11 H       2.1487075 *  3.4089511    1.0750971 *  2.6987859 *  3.8565475  
  12 H       2.1487075 *  3.4089511    2.6987859 *  1.0750971 *  4.5826379  
  13 H       3.4089511    2.1487075 *  3.8565475    4.5826379    1.0750971 *
  14 H       3.4089511    2.1487075 *  4.5826379    3.8565475    2.6987859 *
  15 H       3.3828284    3.8659392    2.1114096 *  4.5815935    3.3640046  
  16 H       3.3828284    3.8659392    4.5815935    2.1114096 *  5.2772603  
  17 H       3.8659392    3.3828284    3.3640046    5.2772603    2.1114096 *
  18 H       3.8659392    3.3828284    5.2772603    3.3640046    4.5815935  

                6 C          7 C          8 C          9 C         10 C     

   1 C       2.4378060 *  2.4072307 *  2.4072307 *  2.7918748 *  2.7918748 *
   2 C       1.4116061 *  2.7918748 *  2.7918748 *  2.4072307 *  2.4072307 *
   3 C       3.7221019    1.3570860 *  3.7080450    2.3996331 *  4.2031125  
   4 C       2.7814518 *  3.7080450    1.3570860 *  4.2031125    2.3996331 *
   5 C       2.4733718 *  2.3996331 *  4.2031125    1.3570860 *  3.7080450  
   6 C       0.0000000    4.2031125    2.3996331 *  3.7080450    1.3570860 *
   7 C       4.2031125    0.0000000    4.8144461    1.4080980 *  5.0161371  
   8 C       2.3996331 *  4.8144461    0.0000000    5.0161371    1.4080980 *
   9 C       3.7080450    1.4080980 *  5.0161371    0.0000000    4.8144461  
  10 C       1.3570860 *  5.0161371    1.4080980 *  4.8144461    0.0000000  
  11 H       4.5826379    2.1140599 *  4.0492856    3.3783850    4.8312472  
  12 H       3.8565475    4.0492856    2.1140599 *  4.8312472    3.3783850  
  13 H       2.6987859 *  3.3783850    4.8312472    2.1140599 *  4.0492856  
  14 H       1.0750971 *  4.8312472    3.3783850    4.0492856    2.1140599 *
  15 H       5.2772603    1.0741686 *  5.7736824    2.1507934 *  6.0669171  
  16 H       3.3640046    5.7736824    1.0741686 *  6.0669171    2.1507934 *
  17 H       4.5815935    2.1507934 *  6.0669171    1.0741686 *  5.7736824  
  18 H       2.1114096 *  6.0669171    2.1507934 *  5.7736824    1.0741686 *

               11 H         12 H         13 H         14 H         15 H     

   1 C       2.1487075 *  2.1487075 *  3.4089511    3.4089511    3.3828284  
   2 C       3.4089511    3.4089511    2.1487075 *  2.1487075 *  3.8659392  
   3 C       1.0750971 *  2.6987859 *  3.8565475    4.5826379    2.1114096 *
   4 C       2.6987859 *  1.0750971 *  4.5826379    3.8565475    4.5815935  
   5 C       3.8565475    4.5826379    1.0750971 *  2.6987859 *  3.3640046  
   6 C       4.5826379    3.8565475    2.6987859 *  1.0750971 *  5.2772603  
   7 C       2.1140599 *  4.0492856    3.3783850    4.8312472    1.0741686 *
   8 C       4.0492856    2.1140599 *  4.8312472    3.3783850    5.7736824  
   9 C       3.3783850    4.8312472    2.1140599 *  4.0492856    2.1507934 *
  10 C       4.8312472    3.3783850    4.0492856    2.1140599 *  6.0669171  
  11 H       0.0000000    2.4774323 *  4.9316422    5.5189461    2.4381759 *
  12 H       2.4774323 *  0.0000000    5.5189461    4.9316422    4.7439216  
  13 H       4.9316422    5.5189461    0.0000000    2.4774323 *  4.2550084  
  14 H       5.5189461    4.9316422    2.4774323 *  0.0000000    5.8877149  
  15 H       2.4381759 *  4.7439216    4.2550084    5.8877149    0.0000000  
  16 H       4.7439216    2.4381759 *  5.8877149    4.2550084    6.6843765  
  17 H       4.2550084    5.8877149    2.4381759 *  4.7439216    2.4657902 *
  18 H       5.8877149    4.2550084    4.7439216    2.4381759 *  7.1246762  

               16 H         17 H         18 H     

   1 C       3.3828284    3.8659392    3.8659392  
   2 C       3.8659392    3.3828284    3.3828284  
   3 C       4.5815935    3.3640046    5.2772603  
   4 C       2.1114096 *  5.2772603    3.3640046  
   5 C       5.2772603    2.1114096 *  4.5815935  
   6 C       3.3640046    4.5815935    2.1114096 *
   7 C       5.7736824    2.1507934 *  6.0669171  
   8 C       1.0741686 *  6.0669171    2.1507934 *
   9 C       6.0669171    1.0741686 *  5.7736824  
  10 C       2.1507934 *  5.7736824    1.0741686 *
  11 H       4.7439216    4.2550084    5.8877149  
  12 H       2.4381759 *  5.8877149    4.2550084  
  13 H       5.8877149    2.4381759 *  4.7439216  
  14 H       4.2550084    4.7439216    2.4381759 *
  15 H       6.6843765    2.4657902 *  7.1246762  
  16 H       0.0000000    7.1246762    2.4657902 *
  17 H       7.1246762    0.0000000    6.6843765  
  18 H       2.4657902 *  6.6843765    0.0000000  

  * ... LESS THAN  3.000


     ATOMIC BASIS SET
     ----------------
 THE CONTRACTED PRIMITIVE FUNCTIONS HAVE BEEN UNNORMALIZED
 THE CONTRACTED BASIS FUNCTIONS ARE NOW NORMALIZED TO UNITY

  SHELL TYPE  PRIMITIVE        EXPONENT          CONTRACTION COEFFICIENT(S)

 C         

      7   S       1          4563.2400000    0.001966650249
      7   S       2           682.0240000    0.015230601932
      7   S       3           154.9730000    0.076126909656
      7   S       4            44.4553000    0.260801033080
      7   S       5            13.0290000    0.616462078191
      7   S       6             1.8277300    0.221006028032

      8   L       7            20.9642000    0.114660080729    0.040248692673
      8   L       8             4.8033100    0.919999647749    0.237593956746
      8   L       9             1.4593300   -0.003030682134    0.815853851473

      9   L      10             0.4834560    1.000000000000    1.000000000000

     10   L      11             0.1455850    1.000000000000    1.000000000000

     11   D      12             1.2520000    1.000000000000

     12   D      13             0.3130000    1.000000000000

 C         

     31   S      14          4563.2400000    0.001966650249
     31   S      15           682.0240000    0.015230601932
     31   S      16           154.9730000    0.076126909656
     31   S      17            44.4553000    0.260801033080
     31   S      18            13.0290000    0.616462078191
     31   S      19             1.8277300    0.221006028032

     32   L      20            20.9642000    0.114660080729    0.040248692673
     32   L      21             4.8033100    0.919999647749    0.237593956746
     32   L      22             1.4593300   -0.003030682134    0.815853851473

     33   L      23             0.4834560    1.000000000000    1.000000000000

     34   L      24             0.1455850    1.000000000000    1.000000000000

     35   D      25             1.2520000    1.000000000000

     36   D      26             0.3130000    1.000000000000

 C         

     55   S      27          4563.2400000    0.001966650249
     55   S      28           682.0240000    0.015230601932
     55   S      29           154.9730000    0.076126909656
     55   S      30            44.4553000    0.260801033080
     55   S      31            13.0290000    0.616462078191
     55   S      32             1.8277300    0.221006028032

     56   L      33            20.9642000    0.114660080729    0.040248692673
     56   L      34             4.8033100    0.919999647749    0.237593956746
     56   L      35             1.4593300   -0.003030682134    0.815853851473

     57   L      36             0.4834560    1.000000000000    1.000000000000

     58   L      37             0.1455850    1.000000000000    1.000000000000

     59   D      38             1.2520000    1.000000000000

     60   D      39             0.3130000    1.000000000000

 H         

     70   S      40            33.8650000    0.025493814541
     70   S      41             5.0947900    0.190373108582
     70   S      42             1.1587900    0.852161486043

     71   S      43             0.3258400    1.000000000000

     72   S      44             0.1027410    1.000000000000

 H         

     82   S      45            33.8650000    0.025493814541
     82   S      46             5.0947900    0.190373108582
     82   S      47             1.1587900    0.852161486043

     83   S      48             0.3258400    1.000000000000

     84   S      49             0.1027410    1.000000000000

 TOTAL NUMBER OF BASIS SET SHELLS             =   84
 NUMBER OF CARTESIAN GAUSSIAN BASIS FUNCTIONS =  274
 NUMBER OF ELECTRONS                          =   68
 CHARGE OF MOLECULE                           =    0
 SPIN MULTIPLICITY                            =    1
 NUMBER OF OCCUPIED ORBITALS (ALPHA)          =   34
 NUMBER OF OCCUPIED ORBITALS (BETA )          =   34
 TOTAL NUMBER OF ATOMS                        =   18
 THE NUCLEAR REPULSION ENERGY IS      461.6190859191

     $CONTRL OPTIONS
     ---------------
 SCFTYP=MCSCF        RUNTYP=HESSIAN      EXETYP=RUN     
 MPLEVL=       0     CITYP =NONE         CCTYP =NONE         VBTYP =NONE    
 DFTTYP=NONE         TDDFT =NONE    
 MULT  =       1     ICHARG=       0     NZVAR =       0     COORD =UNIQUE  
 PP    =NONE         RELWFN=NONE         LOCAL =NONE         NUMGRD=       F
 ISPHER=      -1     NOSYM =       0     MAXIT =      70     UNITS =ANGS    
 PLTORB=       F     MOLPLT=       F     AIMPAC=       F     FRIEND=        
 NPRINT=       7     IREST =       0     GEOM  =INPUT   
 NORMF =       0     NORMP =       0     ITOL  =      20     ICUT  =       9
 INTTYP=BEST         GRDTYP=BEST         QMTTOL= 1.0E-06

     $SYSTEM OPTIONS
     ---------------
  REPLICATED MEMORY=   200000000 WORDS (ON EVERY NODE).
 DISTRIBUTED MEMDDI=         400 MILLION WORDS IN AGGREGATE,
 MEMDDI DISTRIBUTED OVER  32 PROCESSORS IS    12500000 WORDS/PROCESSOR.
 TOTAL MEMORY REQUESTED ON EACH PROCESSOR=   212500000 WORDS.
 TIMLIM=      525600.00 MINUTES, OR     365.0 DAYS.
 PARALL= T  BALTYP=  DLB     KDIAG=    0  COREFL= F
 MXSEQ2=     300 MXSEQ3=     150  mem10=         0  mem22=         0

 Using Gaussians for PCM contribution to MEP, params: 0.10000E+01 0.10000E-07

          ----------------
          PROPERTIES INPUT
          ----------------

     MOMENTS            FIELD           POTENTIAL          DENSITY
 IEMOM =       1   IEFLD =       0   IEPOT =       0   IEDEN =       0
 WHERE =COMASS     WHERE =NUCLEI     WHERE =NUCLEI     WHERE =NUCLEI  
 OUTPUT=BOTH       OUTPUT=BOTH       OUTPUT=BOTH       OUTPUT=BOTH    
 IEMINT=       0   IEFINT=       0                     IEDINT=       0
                                                       MORB  =       0

     -------------------------------
     INTEGRAL TRANSFORMATION OPTIONS
     -------------------------------
     NWORD  =            0
     CUTOFF = 1.0E-09     MPTRAN =       0
     DIRTRF =       F     AOINTS =DUP     
 INTEGRAL TRANSFORMATION OPTION -DIRTRF- FORCED TRUE,
 DUE TO THE CHOICE OF -FULLNR- IN A PARALLEL JOB.

          ----------------------
          MCSCF INPUT PARAMETERS
          ----------------------
 CONVERGER SELECTION: FOCAS = F  SOSCF = F  FULLNR = T  QUD = F  JACOBI = F
 SECULAR EQUATION METHOD CISTEP = ALDET   
 --- GENERAL INPUT OPTIONS:
 MAXIT =     150  MICIT =       1  ACURCY= 1.000E-05
 DAMP  =   0.000  CANONC=       T  ENGTOL= 1.000E-10
 EKT   =       F  NPUNCH=       2  NWORD =         0
 REGENERATE CI AFTER CONVERGENCE = NONE    
 DIABATIZATION AFTER CONVERGENCE =        F
 --- INPUT FOR FULLNR CONVERGER:
 METHOD=DM2       FORS  =       F  DROPC =       T
 LINSER=       F  FCORE =       F  NORB  =     274

          ----------------------
          INTEGRAL INPUT OPTIONS
          ----------------------
 NOPK  =       1 NORDER=       0 SCHWRZ=       T

     ------------------------------------------
     THE POINT GROUP IS DNH, NAXIS= 2, ORDER= 8
     ------------------------------------------

     DIMENSIONS OF THE SYMMETRY SUBSPACES ARE
 AG  =   55     AU  =   16     B3U =   47     B3G =   19     B1G =   47
 B1U =   19     B2U =   55     B2G =   16

 ..... DONE SETTING UP THE RUN .....
 CPU     0: STEP CPU TIME=     0.49 TOTAL CPU TIME=          0.5 (      0.0 MIN)
 TOTAL WALL CLOCK TIME=          0.6 SECONDS, CPU UTILIZATION IS    88.91%

     ---------------------------------
     HESSIAN MATRIX CONTROL PARAMETERS
     ---------------------------------
     METHOD=ANALYTIC   NVIB  =       2   VIBSIZ= 0.01000
     RDHESS=       F   PURIFY=       F   PRTIFC=       F
     VIBANL=       T   DECOMP=       F   PROJCT=       F
     SCLFAC= 1.00000   PRTSCN=       F   NPRT  =       0
     PULCOR=       F   NPUN  =       0   REDOVB=       T
     HSSTYP=GENERAL 
     THERMOCHEMISTRY WILL BE PRINTED FOR    1 TEMPERATURES:
      298.15000
 Old integral subroutine is used

     ------------------------------
     CPHF RESPONSE SOLUTION OPTIONS
     ------------------------------
     POLAR  =       F     NWORD  =       0
     CPHF   =MO      

          ********************
          1 ELECTRON INTEGRALS
          ********************
 TIME TO DO   DIPOLE INTEGRALS=      0.02
 ...... END OF ONE-ELECTRON INTEGRALS ......
 CPU     0: STEP CPU TIME=     0.04 TOTAL CPU TIME=          0.5 (      0.0 MIN)
 TOTAL WALL CLOCK TIME=          0.6 SECONDS, CPU UTILIZATION IS    88.08%

          -------------
          GUESS OPTIONS
          -------------
          GUESS =MOREAD            NORB  =     274          NORDER=       0
          MIX   =       F          PRTMO =       F          PUNMO =       F
          TOLZ  = 1.0E-08          TOLE  = 1.0E-05
          SYMDEN=       F          PURIFY=       F

 INITIAL GUESS ORBITALS GENERATED BY MOREAD   ROUTINE.

 SYMMETRIES FOR INITIAL GUESS ORBITALS FOLLOW.   BOTH SET(S).
    34 ORBITALS ARE OCCUPIED (   10 CORE ORBITALS).
     1=AG       2=B2U      3=B3U      4=AG       5=B1G      6=B2U      7=B3U 
     8=AG       9=B1G     10=B2U     11=AG      12=B3U     13=B2U     14=AG  
    15=B1G     16=B3U     17=B2U     18=AG      19=B1G     20=B3U     21=AG  
    22=B2U     23=AG      24=B3U     25=B1G     26=B2U     27=B3U     28=B1U 
    29=B1G     30=AG      31=B2G     32=B3G     33=B1U     34=AU      35=B2G 
    36=B3G     37=AG      38=B2U     39=B3U     40=B1U     41=AG      42=B1G 
    43=B2U     44=B3U     45=B1G     46=AU      47=AG      48=B3U     49=B2U 
    50=B3G     51=AG      52=B2U     53=AG      54=B3U     55=B1G     56=AG  
    57=B1G     58=B2U     59=B3U     60=AG      61=B3U     62=B1U     63=B2G 
    64=B2U     65=B3G     66=B3U     67=AG      68=B2U     69=B1U     70=B1G 
    71=AU      72=B2U     73=B1G     74=B2G     75=B1U     76=AG      77=B3U 
    78=B2G     79=B1G     80=B2U     81=AG      82=B3G     83=B1G     84=B2U 
    85=AU      86=B3U     87=B1U     88=B2U     89=B1G     90=AG      91=B3U 
    92=B3G     93=B1U     94=AG      95=B3U     96=B2U     97=B2G     98=AU  
    99=B1G    100=B3G    101=B2U    102=AG     103=B3U    104=B2G    105=B1G 
   106=B2U    107=AG     108=B1G    109=B3U    110=AU     111=B1U    112=AG  
   113=AG     114=B2U    115=B1G    116=B3U    117=B3U    118=AG     119=B3G 
   120=B2U    121=B1U    122=B1G    123=AG     124=B2U    125=B3U    126=B2U 
   127=B1G    128=B3G    129=AU     130=AG     131=B2G    132=B2G    133=B3U 
   134=B1G    135=B1U    136=AG     137=B1G    138=B3G    139=B2U    140=AG  
   141=B2U    142=B3U    143=B3U    144=AU     145=B1G    146=B2U    147=B2U 
   148=AG     149=B1G    150=B2U    151=AG     152=AU     153=B1G    154=B3U 
   155=B2U    156=B3U    157=B1G    158=B3G    159=AG     160=B2U    161=B3U 
   162=AG     163=B1G    164=B2U    165=B1G    166=B2U    167=B3U    168=AG  
   169=B2U    170=B1U    171=B2G    172=B1G    173=B3G    174=B3U    175=B1U 
   176=AG     177=AU     178=B3G    179=B2G    180=B1U    181=B3U    182=B1U 
   183=B2G    184=AG     185=B1G    186=B3G    187=AU     188=B3U    189=AG  
   190=B2U    191=AG     192=B2G    193=B3G    194=B3U    195=B1U    196=AU  
   197=B1G    198=AG     199=B2G    200=B1U    201=AU     202=B3U    203=B2U 
   204=AG     205=B3U    206=B2U    207=AG     208=B3G    209=B1U    210=B1G 
   211=AG     212=B3U    213=B3U    214=B1G    215=AU     216=B3G    217=B2G 
   218=B1U    219=B3G    220=AG     221=B2U    222=AU     223=B2G    224=B1G 
   225=AG     226=B2U    227=B1G    228=B2U    229=B2U    230=B3U    231=AU  
   232=B1G    233=B3G    234=B1G    235=B3U    236=AG     237=B2U    238=AG  
   239=B2U    240=B3U    241=B2U    242=B1G    243=AG     244=B2U    245=B1G 
   246=B3U    247=B1G    248=B2U    249=AG     250=B1G    251=B2U    252=B3U 
   253=B2U    254=B1G    255=AG     256=B3U    257=B2U    258=AG     259=B1G 
   260=B3U    261=B2U    262=AG     263=B1G    264=B2U    265=AG     266=B3U 
   267=B2U    268=AG     269=B3U    270=B1G    271=AG     272=B2U    273=B1G 
   274=B2U 
 ...... END OF INITIAL ORBITAL SELECTION ......
 CPU     0: STEP CPU TIME=     0.10 TOTAL CPU TIME=          0.6 (      0.0 MIN)
 TOTAL WALL CLOCK TIME=          0.8 SECONDS, CPU UTILIZATION IS    85.16%

                    ----------------------
                    AO INTEGRAL TECHNOLOGY
                    ----------------------
     S,P,L SHELL ROTATED AXIS INTEGRALS, REPROGRAMMED BY
        KAZUYA ISHIMURA (IMS) AND JOSE SIERRA (SYNSTAR).
     S,P,D,L SHELL ROTATED AXIS INTEGRALS PROGRAMMED BY
        KAZUYA ISHIMURA (INSTITUTE FOR MOLECULAR SCIENCE).
     S,P,D,F,G SHELL TO TOTAL QUARTET ANGULAR MOMENTUM SUM 5,
        ERIC PROGRAM BY GRAHAM FLETCHER (ELORET AND NASA ADVANCED
        SUPERCOMPUTING DIVISION, AMES RESEARCH CENTER).
     S,P,D,F,G,L SHELL GENERAL RYS QUADRATURE PROGRAMMED BY
        MICHEL DUPUIS (PACIFIC NORTHWEST NATIONAL LABORATORY).
 DIRECT TRANSFORMATION SKIPS AO INTEGRAL STORAGE ON DISK.
  ...... END OF TWO-ELECTRON INTEGRALS .....
 STEP CPU TIME =     0.01 TOTAL CPU TIME =          0.7 (      0.0 MIN)
 TOTAL WALL CLOCK TIME=          0.8 SECONDS, CPU UTILIZATION IS    85.36%

          -----------------
          MCSCF CALCULATION
          -----------------

 ----- NUCLEAR ENERGY ----- =       461.6190859191

     --------------------------------------------------
          AMES LABORATORY DETERMINANTAL FULL CI
     PROGRAM WRITTEN BY JOE IVANIC AND KLAUS RUEDENBERG
     --------------------------------------------------

 THE POINT GROUP                  =   D2H     
 THE STATE SYMMETRY               =   AG      
 NUMBER OF CORE ORBITALS          =   31
 NUMBER OF ACTIVE ORBITALS        =    5
 NUMBER OF ALPHA ELECTRONS        =   34 (   3 ACTIVE)
 NUMBER OF BETA ELECTRONS         =   34 (   3 ACTIVE)
 NUMBER OF OCCUPIED ORBITALS      =   36
 NUMBER OF CI STATES REQUESTED    =    1
 NUMBER OF CI STARTING VECTORS    =    1
 MAX. NO. OF CI EXPANSION VECTORS =   10
 SIZE OF INITIAL CI GUESS MATRIX  =  300
 MAX. NO. OF CI ITERS/STATE       =  100
 CI DIAGONALIZATION CRITERION     = 1.00E-06
 PURE SPIN STATE AVERAGED 1E- AND 2E- DENSITY MATRIX OPTION=.T.
 STATE=   1 DM2 WEIGHT=   1.00000

 CORRELATION ENERGY ANALYSIS      =    F

 SYMMETRIES FOR THE  31 CORE,   5 ACTIVE ARE

     CORE= AG    B2U   B3U   AG    B1G   B2U   B3U   AG    B1G   B2U 
           AG    B3U   B2U   AG    B1G   B3U   B2U   AG    B1G   B3U 
           AG    B2U   AG    B3U   B1G   B2U   B3U   B1U   B1G   AG  
           B2G 

   ACTIVE= B3G   B1U   AU    B2G   B3G 

 EVALUATING EXCHANGE INTEGRALS FOR DIRECT INTEGRAL TRANSFORMATION
 SCHWARZ INEQUALITY OVERHEAD:     36317 INTEGRALS, T=        0.00

     --------------------------------------------
     PARTIAL TWO ELECTRON INTEGRAL TRANSFORMATION
     --------------------------------------------

 NUMBER OF CORE MOLECULAR ORBITALS     =   31
 NUMBER OF OCCUPIED MOLECULAR ORBITALS =   36
 TOTAL NUMBER OF MOLECULAR ORBITALS    =  274
 TOTAL NUMBER OF ATOMIC ORBITALS       =  274
 THRESHOLD FOR KEEPING TRANSFORMED 2E- INTEGRALS = 1.000E-09

 -------------------------------     ------------------------------
 DISTRIBUTED DATA TRANSFORMATION     PROGRAM WRITTEN BY G. FLETCHER
 -------------------------------     ------------------------------

 THE DISTRIBUTED MEMORY REQUIRED FOR THIS STEP IS MEMDDI=        82 MWORDS
 CREATING DISTRIBUTED STORAGE FOR [VIR OCC|VIR OCC] INTEGRALS
 DDI: Creating Array [0] - 75076 x 666 = 50000616 words.
 CREATING DISTRIBUTED STORAGE FOR [VIR OCC|OCC OCC] INTEGRALS
 DDI: Creating Array [1] - 238 x 23976 = 5706288 words.
 CREATING DISTRIBUTED STORAGE FOR [OCC OCC|OCC OCC] INTEGRALS
 DDI: Creating Array [2] - 666 x 666 = 443556 words.
 CREATING DISTRIBUTED STORAGE FOR [VIR VIR|OCC OCC] INTEGRALS
 DDI: Creating Array [3] - 37675 x 666 = 25091550 words.
 FOR   32 PROCESSORS, THE REPLICATED MEMORY NEEDED IS     1059754 WORDS.
 SCHWARZ INEQUALITY OVERHEAD:     36317 INTEGRALS, T=        0.00

      DIRECT 4-INDEX TRANSFORMATION 
      SCHWARZ INEQUALITY TEST SKIPPED    1025348 INTEGRAL BLOCKS
 ----- FROZEN CORE ENERGY =      -839.6000722162
 ... END OF INTEGRAL TRANSFORMATION ...
 CPU     0: STEP CPU TIME=     2.63 TOTAL CPU TIME=          3.3 (      0.1 MIN)
 TOTAL WALL CLOCK TIME=          3.6 SECONDS, CPU UTILIZATION IS    90.25%

     --------------------------------------------------
          AMES LABORATORY DETERMINANTAL FULL CI
     PROGRAM WRITTEN BY JOE IVANIC AND KLAUS RUEDENBERG
     --------------------------------------------------

 THE NUMBER OF DETERMINANTS HAVING SPACE SYMMETRY AG 
 IN POINT GROUP D2H  WITH SZ=  0.0 IS             28
 THE DETERMINANT FULL CI REQUIRES          217439 WORDS
 SMALL CI MATRIX, JUST USING INCORE DIAGONALIZATION...

 CI EIGENVECTORS WILL BE LABELED IN GROUP=D2H     
 PRINTING CI COEFFICIENTS LARGER THAN 5.000E-02

 STATE   1  ENERGY=      -383.4636443724  S=  0.00  SZ=  0.00  SPACE SYM=AG  

ALPHA  |BETA   | CI COEFFICIENT
-------|-------|---------------
 11100 | 11100 |   0.9766829927
 10101 | 10101 |  -0.1044412363
 11010 | 11010 |  -0.0898739128
 11100 | 10011 |  -0.0708187371
 10011 | 11100 |  -0.0708187371
 11001 | 10110 |   0.0506537998
 10110 | 11001 |   0.0506537998
 ..... DONE WITH DETERMINANT CI COMPUTATION .....
 CPU     0: STEP CPU TIME=     0.09 TOTAL CPU TIME=          3.4 (      0.1 MIN)
 TOTAL WALL CLOCK TIME=          3.8 SECONDS, CPU UTILIZATION IS    89.45%

     --------------------------------------------------
      ONE AND TWO PARTICLE DENSITY MATRIX COMPUTATION
     PROGRAM WRITTEN BY JOE IVANIC AND KLAUS RUEDENBERG
     --------------------------------------------------

      31717 WORDS WILL BE USED TO FORM THE DENSITIES
 THE DENSITIES ARE STATE AVERAGED OVER   1 ROOT(S)
 STATE=   1   ENERGY=     -383.4636443724   WEIGHT= 1.00000   S=  0.00
 SIEVING THE AG   SYMMETRY NONZERO DENSITY ELEMENTS IN GROUP D2H     
         39 NONZERO DM2 ELEMENTS WRITTEN IN       1 RECORDS TO FILE 15
 ..... DONE WITH 1 AND 2 PARTICLE DENSITY MATRIX .....
 CPU     0: STEP CPU TIME=     0.00 TOTAL CPU TIME=          3.4 (      0.1 MIN)
 TOTAL WALL CLOCK TIME=          3.8 SECONDS, CPU UTILIZATION IS    89.42%

     --------------------------------     -----------------------------
     MCHF NEWTON-RAPHSON OPTIMIZATION     CODE WRITTEN BY MICHEL DUPUIS
     --------------------------------     -----------------------------
     PARALLEL VERSION WRITTEN BY G. FLETCHER (ELORET)
     NASA ADVANCED SUPERCOMPUTING DIVISION, AMES RESEARCH CENTER

 NUMBER OF INDEPENDENT ORBITAL ROTATION PARAMETERS =  1364
 ..... DONE SOLVING NEWTON-RAPHSON EQUATIONS .....
 CPU     0: STEP CPU TIME=     0.14 TOTAL CPU TIME=          3.5 (      0.1 MIN)
 TOTAL WALL CLOCK TIME=          4.4 SECONDS, CPU UTILIZATION IS    79.45%
 ..... DONE WITH NTN-RPH ORBITAL ROTATIONS ..... 
 CPU     0: STEP CPU TIME=     0.00 TOTAL CPU TIME=          3.5 (      0.1 MIN)
 TOTAL WALL CLOCK TIME=          4.4 SECONDS, CPU UTILIZATION IS    79.42%
 MAXIMUM MEMORY USED BY NTN-RPH CODE WAS    309154 WORDS.

 ITER     TOTAL ENERGY      DEL(E)  LAGRANGIAN ASYMMETRY   SQCDF  MICIT   DAMP
   1     -383.463644372 -0.463644372  0.000007  214   29 5.406E-10  1   0.0000
   2     -383.463644373 -0.000000000  0.000007  214   29 5.406E-10  1   0.0000

          --------------------
          LAGRANGIAN CONVERGED
          --------------------

 FINAL MCSCF ENERGY IS     -383.4636443726 AFTER   2 ITERATIONS

 -MCCI- BASED ON OPTIMIZED ORBITALS
 ----------------------------------

 PLEASE NOTE: IF THE ACTIVE ORBITALS ARE CANONICALIZED BELOW,
 THE FOLLOWING CI EXPANSION COEFFICIENTS AND THE DENSITY DO NOT
 CORRESPOND TO THE PRINTED ORBITALS.  THE PRINTED EXPANSIONS MATCH
 THE ORBITALS USED DURING THE LAST ITERATION.  IF YOU WISH TO SEE
 CI EXPANSIONS BASED ON THE CANONICAL (OR NATURAL) ORBITALS, YOU
 MUST RUN A CI CALCULATION WITH THAT ORBITAL CHOICE READ IN $VEC.

 CI EIGENVECTORS WILL BE LABELED IN GROUP=D2H     
 PRINTING CI COEFFICIENTS LARGER THAN 5.000E-02

 STATE   1  ENERGY=      -383.4636443726  S=  0.00  SZ=  0.00  SPACE SYM=AG  

ALPHA  |BETA   | CI COEFFICIENT
-------|-------|---------------
 11100 | 11100 |   0.9766829927
 10101 | 10101 |  -0.1044412363
 11010 | 11010 |  -0.0898739128
 10011 | 11100 |  -0.0708187371
 11100 | 10011 |  -0.0708187371
 11001 | 10110 |   0.0506537998
 10110 | 11001 |   0.0506537998

 DENSITY MATRIX OVER ACTIVE MO-S

             1           2           3           4           5

    1    1.9882565
    2    0.0000000   1.9572918
    3    0.0000000   0.0000000   1.9639469
    4    0.0000000   0.0000000   0.0000000   0.0410675
    5   -0.0736513   0.0000000   0.0000000   0.0000000   0.0494373

 FORMING THE "STANDARD FOCK OPERATOR" IN DIRECT AO INTEGRAL MODE...
    31 FILLED,    5 ACTIVE, AND  238 VIRTUAL ORBITALS  WILL BE CANONICALIZED

          ----------------------
          MCSCF NATURAL ORBITALS
          ----------------------

                      1          2          3          4          5
                  -11.2357   -11.2347   -11.2293   -11.2292   -11.2290
                     AG         B2U        B3U        AG         B1G 
    1  C  1  S    0.395956   0.394952  -0.000000  -0.036434  -0.000000
    2  C  1  S    0.327145   0.326323  -0.000000  -0.030077  -0.000000
    3  C  1  X    0.000000  -0.000000   0.000140   0.000000   0.000146
    4  C  1  Y    0.000116  -0.000135  -0.000000  -0.000077  -0.000000
    5  C  1  Z    0.000000  -0.000000  -0.000000   0.000000  -0.000000
    6  C  1  S    0.004720   0.004342  -0.000000  -0.000125  -0.000000
    7  C  1  X    0.000000  -0.000000   0.000140   0.000000   0.000322
    8  C  1  Y    0.000361  -0.000181  -0.000000  -0.000311  -0.000000
    9  C  1  Z    0.000000  -0.000000  -0.000000   0.000000  -0.000000
   10  C  1  S    0.002525   0.001331  -0.000000  -0.001191  -0.000000
   11  C  1  X    0.000000  -0.000000   0.000846   0.000000   0.003099
   12  C  1  Y   -0.000072  -0.002697  -0.000000   0.000046  -0.000000
   13  C  1  Z    0.000000  -0.000000  -0.000000   0.000000  -0.000000
   14  C  1 XX   -0.000583  -0.000531  -0.000000   0.000195  -0.000000
   15  C  1 YY   -0.000466  -0.000770  -0.000000   0.000080  -0.000000
   16  C  1 ZZ   -0.001053  -0.001087  -0.000000   0.000152  -0.000000
   17  C  1 XY    0.000000  -0.000000  -0.000107   0.000000  -0.000133
   18  C  1 XZ    0.000000  -0.000000  -0.000000   0.000000  -0.000000
   19  C  1 YZ    0.000000  -0.000000  -0.000000   0.000000  -0.000000
   20  C  1 XX   -0.001184  -0.002091  -0.000000   0.000183  -0.000000
   21  C  1 YY   -0.001449  -0.000891  -0.000000   0.000573  -0.000000
   22  C  1 ZZ   -0.000815  -0.000982  -0.000000   0.000239  -0.000000
   23  C  1 XY    0.000000  -0.000000   0.000151   0.000000   0.000935
   24  C  1 XZ    0.000000  -0.000000  -0.000000   0.000000  -0.000000
   25  C  1 YZ    0.000000  -0.000000  -0.000000   0.000000  -0.000000
   26  C  2  S    0.395956  -0.394952  -0.000000  -0.036434  -0.000000
   27  C  2  S    0.327145  -0.326323  -0.000000  -0.030077  -0.000000
   28  C  2  X    0.000000  -0.000000   0.000140   0.000000  -0.000146
   29  C  2  Y   -0.000116  -0.000135  -0.000000   0.000077  -0.000000
   30  C  2  Z    0.000000  -0.000000  -0.000000   0.000000  -0.000000
   31  C  2  S    0.004720  -0.004342  -0.000000  -0.000125  -0.000000
   32  C  2  X    0.000000  -0.000000   0.000140   0.000000  -0.000322
   33  C  2  Y   -0.000361  -0.000181  -0.000000   0.000311  -0.000000
   34  C  2  Z    0.000000  -0.000000  -0.000000   0.000000  -0.000000
   35  C  2  S    0.002525  -0.001331  -0.000000  -0.001191  -0.000000
   36  C  2  X    0.000000  -0.000000   0.000846   0.000000  -0.003099
   37  C  2  Y    0.000072  -0.002697  -0.000000  -0.000046  -0.000000
   38  C  2  Z    0.000000  -0.000000  -0.000000   0.000000  -0.000000
   39  C  2 XX   -0.000583   0.000531  -0.000000   0.000195  -0.000000
   40  C  2 YY   -0.000466   0.000770  -0.000000   0.000080  -0.000000
   41  C  2 ZZ   -0.001053   0.001087  -0.000000   0.000152  -0.000000
   42  C  2 XY    0.000000  -0.000000   0.000107   0.000000  -0.000133
   43  C  2 XZ    0.000000  -0.000000  -0.000000   0.000000  -0.000000
   44  C  2 YZ    0.000000  -0.000000  -0.000000   0.000000  -0.000000
   45  C  2 XX   -0.001184   0.002091  -0.000000   0.000183  -0.000000
   46  C  2 YY   -0.001449   0.000891  -0.000000   0.000573  -0.000000
   47  C  2 ZZ   -0.000815   0.000982  -0.000000   0.000239  -0.000000
   48  C  2 XY    0.000000  -0.000000  -0.000151   0.000000   0.000935
   49  C  2 XZ    0.000000  -0.000000  -0.000000   0.000000  -0.000000
   50  C  2 YZ    0.000000  -0.000000  -0.000000   0.000000  -0.000000
   51  C  3  S    0.030865   0.037261   0.226456   0.219793   0.261777
   52  C  3  S    0.025510   0.030758   0.187101   0.181637   0.216265
   53  C  3  X   -0.000112  -0.000105   0.000007   0.000005  -0.000030
   54  C  3  Y    0.000045   0.000028  -0.000016  -0.000027  -0.000028
   55  C  3  Z    0.000000  -0.000000  -0.000000   0.000000  -0.000000
   56  C  3  S    0.000909   0.001001   0.002655   0.002254   0.003480
   57  C  3  X   -0.000229  -0.000449   0.000044   0.000208   0.000028
   58  C  3  Y    0.000139   0.000353   0.000122   0.000139   0.000195
   59  C  3  Z    0.000000  -0.000000  -0.000000   0.000000  -0.000000
   60  C  3  S   -0.000703  -0.001113   0.000804   0.001828  -0.000267
   61  C  3  X    0.000170   0.000656   0.000320  -0.000110   0.000710
   62  C  3  Y   -0.000121   0.000442  -0.000583   0.000018  -0.001072
   63  C  3  Z    0.000000  -0.000000  -0.000000   0.000000  -0.000000
   64  C  3 XX    0.000082   0.000068  -0.000287  -0.000271  -0.000366
   65  C  3 YY   -0.000027  -0.000043  -0.000365  -0.000339  -0.000409
   66  C  3 ZZ   -0.000043  -0.000100  -0.000619  -0.000557  -0.000732
   67  C  3 XY   -0.000066  -0.000084   0.000043   0.000059   0.000043
   68  C  3 XZ    0.000000  -0.000000  -0.000000   0.000000  -0.000000
   69  C  3 YZ    0.000000  -0.000000  -0.000000   0.000000  -0.000000
   70  C  3 XX    0.000242  -0.000449  -0.000753  -0.000843  -0.000455
   71  C  3 YY    0.000299   0.000330  -0.000761  -0.000610  -0.001038
   72  C  3 ZZ    0.000142   0.000141  -0.000504  -0.000616  -0.000478
   73  C  3 XY    0.000166  -0.000023  -0.000005  -0.000091   0.000058
   74  C  3 XZ    0.000000  -0.000000  -0.000000   0.000000  -0.000000
   75  C  3 YZ    0.000000  -0.000000  -0.000000   0.000000  -0.000000
   76  C  4  S    0.030865   0.037261  -0.226456   0.219793  -0.261777
   77  C  4  S    0.025510   0.030758  -0.187101   0.181637  -0.216265
   78  C  4  X    0.000112   0.000105   0.000007  -0.000005  -0.000030
   79  C  4  Y    0.000045   0.000028   0.000016  -0.000027   0.000028
   80  C  4  Z    0.000000  -0.000000  -0.000000   0.000000  -0.000000
   81  C  4  S    0.000909   0.001001  -0.002655   0.002254  -0.003480
   82  C  4  X    0.000229   0.000449   0.000044  -0.000208   0.000028
   83  C  4  Y    0.000139   0.000353  -0.000122   0.000139  -0.000195
   84  C  4  Z    0.000000  -0.000000  -0.000000   0.000000  -0.000000
   85  C  4  S   -0.000703  -0.001113  -0.000804   0.001828   0.000267
   86  C  4  X   -0.000170  -0.000656   0.000320   0.000110   0.000710
   87  C  4  Y   -0.000121   0.000442   0.000583   0.000018   0.001072
   88  C  4  Z    0.000000  -0.000000  -0.000000   0.000000  -0.000000
   89  C  4 XX    0.000082   0.000068   0.000287  -0.000271   0.000366
   90  C  4 YY   -0.000027  -0.000043   0.000365  -0.000339   0.000409
   91  C  4 ZZ   -0.000043  -0.000100   0.000619  -0.000557   0.000732
   92  C  4 XY    0.000066   0.000084   0.000043  -0.000059   0.000043
   93  C  4 XZ    0.000000  -0.000000  -0.000000   0.000000  -0.000000
   94  C  4 YZ    0.000000  -0.000000  -0.000000   0.000000  -0.000000
   95  C  4 XX    0.000242  -0.000449   0.000753  -0.000843   0.000455
   96  C  4 YY    0.000299   0.000330   0.000761  -0.000610   0.001038
   97  C  4 ZZ    0.000142   0.000141   0.000504  -0.000616   0.000478
   98  C  4 XY   -0.000166   0.000023  -0.000005   0.000091   0.000058
   99  C  4 XZ    0.000000  -0.000000  -0.000000   0.000000  -0.000000
  100  C  4 YZ    0.000000  -0.000000  -0.000000   0.000000  -0.000000
  101  C  5  S    0.030865  -0.037261   0.226456   0.219793  -0.261777
  102  C  5  S    0.025510  -0.030758   0.187101   0.181637  -0.216265
  103  C  5  X   -0.000112   0.000105   0.000007   0.000005   0.000030
  104  C  5  Y   -0.000045   0.000028   0.000016   0.000027  -0.000028
  105  C  5  Z    0.000000  -0.000000  -0.000000   0.000000  -0.000000
  106  C  5  S    0.000909  -0.001001   0.002655   0.002254  -0.003480
  107  C  5  X   -0.000229   0.000449   0.000044   0.000208  -0.000028
  108  C  5  Y   -0.000139   0.000353  -0.000122  -0.000139   0.000195
  109  C  5  Z    0.000000  -0.000000  -0.000000   0.000000  -0.000000
  110  C  5  S   -0.000703   0.001113   0.000804   0.001828   0.000267
  111  C  5  X    0.000170  -0.000656   0.000320  -0.000110  -0.000710
  112  C  5  Y    0.000121   0.000442   0.000583  -0.000018  -0.001072
  113  C  5  Z    0.000000  -0.000000  -0.000000   0.000000  -0.000000
  114  C  5 XX    0.000082  -0.000068  -0.000287  -0.000271   0.000366
  115  C  5 YY   -0.000027   0.000043  -0.000365  -0.000339   0.000409
  116  C  5 ZZ   -0.000043   0.000100  -0.000619  -0.000557   0.000732
  117  C  5 XY    0.000066  -0.000084  -0.000043  -0.000059   0.000043
  118  C  5 XZ    0.000000  -0.000000  -0.000000   0.000000  -0.000000
  119  C  5 YZ    0.000000  -0.000000  -0.000000   0.000000  -0.000000
  120  C  5 XX    0.000242   0.000449  -0.000753  -0.000843   0.000455
  121  C  5 YY    0.000299  -0.000330  -0.000761  -0.000610   0.001038
  122  C  5 ZZ    0.000142  -0.000141  -0.000504  -0.000616   0.000478
  123  C  5 XY   -0.000166  -0.000023   0.000005   0.000091   0.000058
  124  C  5 XZ    0.000000  -0.000000  -0.000000   0.000000  -0.000000
  125  C  5 YZ    0.000000  -0.000000  -0.000000   0.000000  -0.000000
  126  C  6  S    0.030865  -0.037261  -0.226456   0.219793   0.261777
  127  C  6  S    0.025510  -0.030758  -0.187101   0.181637   0.216265
  128  C  6  X    0.000112  -0.000105   0.000007  -0.000005   0.000030
  129  C  6  Y   -0.000045   0.000028  -0.000016   0.000027   0.000028
  130  C  6  Z    0.000000  -0.000000  -0.000000   0.000000  -0.000000
  131  C  6  S    0.000909  -0.001001  -0.002655   0.002254   0.003480
  132  C  6  X    0.000229  -0.000449   0.000044  -0.000208  -0.000028
  133  C  6  Y   -0.000139   0.000353   0.000122  -0.000139  -0.000195
  134  C  6  Z    0.000000  -0.000000  -0.000000   0.000000  -0.000000
  135  C  6  S   -0.000703   0.001113  -0.000804   0.001828  -0.000267
  136  C  6  X   -0.000170   0.000656   0.000320   0.000110  -0.000710
  137  C  6  Y    0.000121   0.000442  -0.000583  -0.000018   0.001072
  138  C  6  Z    0.000000  -0.000000  -0.000000   0.000000  -0.000000
  139  C  6 XX    0.000082  -0.000068   0.000287  -0.000271  -0.000366
  140  C  6 YY   -0.000027   0.000043   0.000365  -0.000339  -0.000409
  141  C  6 ZZ   -0.000043   0.000100   0.000619  -0.000557  -0.000732
  142  C  6 XY   -0.000066   0.000084  -0.000043   0.000059   0.000043
  143  C  6 XZ    0.000000  -0.000000  -0.000000   0.000000  -0.000000
  144  C  6 YZ    0.000000  -0.000000  -0.000000   0.000000  -0.000000
  145  C  6 XX    0.000242   0.000449   0.000753  -0.000843  -0.000455
  146  C  6 YY    0.000299  -0.000330   0.000761  -0.000610  -0.001038
  147  C  6 ZZ    0.000142  -0.000141   0.000504  -0.000616  -0.000478
  148  C  6 XY    0.000166   0.000023   0.000005  -0.000091   0.000058
  149  C  6 XZ    0.000000  -0.000000  -0.000000   0.000000  -0.000000
  150  C  6 YZ    0.000000  -0.000000  -0.000000   0.000000  -0.000000
  151  C  7  S    0.002294   0.003828   0.167502   0.174261   0.104085
  152  C  7  S    0.001928   0.003161   0.138394   0.143988   0.085981
  153  C  7  X   -0.000021  -0.000010  -0.000009  -0.000015  -0.000051
  154  C  7  Y   -0.000007  -0.000009   0.000023   0.000028  -0.000080
  155  C  7  Z    0.000000  -0.000000  -0.000000   0.000000  -0.000000
  156  C  7  S   -0.000223   0.000405   0.002238   0.002248   0.001090
  157  C  7  X    0.000145  -0.000012  -0.000253  -0.000214  -0.000222
  158  C  7  Y    0.000005  -0.000000   0.000009   0.000013  -0.000093
  159  C  7  Z    0.000000  -0.000000  -0.000000   0.000000  -0.000000
  160  C  7  S    0.000078  -0.000282   0.000661   0.000786   0.001413
  161  C  7  X    0.000018   0.000103   0.000068   0.000116   0.000067
  162  C  7  Y    0.000041   0.000114   0.000072  -0.000064   0.000542
  163  C  7  Z    0.000000  -0.000000  -0.000000   0.000000  -0.000000
  164  C  7 XX    0.000004  -0.000001  -0.000194  -0.000208  -0.000088
  165  C  7 YY    0.000023  -0.000002  -0.000188  -0.000187  -0.000192
  166  C  7 ZZ    0.000027   0.000002  -0.000431  -0.000437  -0.000295
  167  C  7 XY    0.000020   0.000006   0.000066   0.000058   0.000058
  168  C  7 XZ    0.000000  -0.000000  -0.000000   0.000000  -0.000000
  169  C  7 YZ    0.000000  -0.000000  -0.000000   0.000000  -0.000000
  170  C  7 XX   -0.000014   0.000109  -0.000372  -0.000440  -0.000563
  171  C  7 YY   -0.000015   0.000434  -0.000406  -0.000443  -0.000512
  172  C  7 ZZ   -0.000069   0.000050  -0.000268  -0.000313  -0.000261
  173  C  7 XY   -0.000061   0.000232  -0.000036  -0.000006  -0.000216
  174  C  7 XZ    0.000000  -0.000000  -0.000000   0.000000  -0.000000
  175  C  7 YZ    0.000000  -0.000000  -0.000000   0.000000  -0.000000
  176  C  8  S    0.002294   0.003828  -0.167502   0.174261  -0.104085
  177  C  8  S    0.001928   0.003161  -0.138394   0.143988  -0.085981
  178  C  8  X    0.000021   0.000010  -0.000009   0.000015  -0.000051
  179  C  8  Y   -0.000007  -0.000009  -0.000023   0.000028   0.000080
  180  C  8  Z    0.000000  -0.000000  -0.000000   0.000000  -0.000000
  181  C  8  S   -0.000223   0.000405  -0.002238   0.002248  -0.001090
  182  C  8  X   -0.000145   0.000012  -0.000253   0.000214  -0.000222
  183  C  8  Y    0.000005  -0.000000  -0.000009   0.000013   0.000093
  184  C  8  Z    0.000000  -0.000000  -0.000000   0.000000  -0.000000
  185  C  8  S    0.000078  -0.000282  -0.000661   0.000786  -0.001413
  186  C  8  X   -0.000018  -0.000103   0.000068  -0.000116   0.000067
  187  C  8  Y    0.000041   0.000114  -0.000072  -0.000064  -0.000542
  188  C  8  Z    0.000000  -0.000000  -0.000000   0.000000  -0.000000
  189  C  8 XX    0.000004  -0.000001   0.000194  -0.000208   0.000088
  190  C  8 YY    0.000023  -0.000002   0.000188  -0.000187   0.000192
  191  C  8 ZZ    0.000027   0.000002   0.000431  -0.000437   0.000295
  192  C  8 XY   -0.000020  -0.000006   0.000066  -0.000058   0.000058
  193  C  8 XZ    0.000000  -0.000000  -0.000000   0.000000  -0.000000
  194  C  8 YZ    0.000000  -0.000000  -0.000000   0.000000  -0.000000
  195  C  8 XX   -0.000014   0.000109   0.000372  -0.000440   0.000563
  196  C  8 YY   -0.000015   0.000434   0.000406  -0.000443   0.000512
  197  C  8 ZZ   -0.000069   0.000050   0.000268  -0.000313   0.000261
  198  C  8 XY    0.000061  -0.000232  -0.000036   0.000006  -0.000216
  199  C  8 XZ    0.000000  -0.000000  -0.000000   0.000000  -0.000000
  200  C  8 YZ    0.000000  -0.000000  -0.000000   0.000000  -0.000000
  201  C  9  S    0.002294  -0.003828   0.167502   0.174261  -0.104085
  202  C  9  S    0.001928  -0.003161   0.138394   0.143988  -0.085981
  203  C  9  X   -0.000021   0.000010  -0.000009  -0.000015   0.000051
  204  C  9  Y    0.000007  -0.000009  -0.000023  -0.000028  -0.000080
  205  C  9  Z    0.000000  -0.000000  -0.000000   0.000000  -0.000000
  206  C  9  S   -0.000223  -0.000405   0.002238   0.002248  -0.001090
  207  C  9  X    0.000145   0.000012  -0.000253  -0.000214   0.000222
  208  C  9  Y   -0.000005  -0.000000  -0.000009  -0.000013  -0.000093
  209  C  9  Z    0.000000  -0.000000  -0.000000   0.000000  -0.000000
  210  C  9  S    0.000078   0.000282   0.000661   0.000786  -0.001413
  211  C  9  X    0.000018  -0.000103   0.000068   0.000116  -0.000067
  212  C  9  Y   -0.000041   0.000114  -0.000072   0.000064   0.000542
  213  C  9  Z    0.000000  -0.000000  -0.000000   0.000000  -0.000000
  214  C  9 XX    0.000004   0.000001  -0.000194  -0.000208   0.000088
  215  C  9 YY    0.000023   0.000002  -0.000188  -0.000187   0.000192
  216  C  9 ZZ    0.000027  -0.000002  -0.000431  -0.000437   0.000295
  217  C  9 XY   -0.000020   0.000006  -0.000066  -0.000058   0.000058
  218  C  9 XZ    0.000000  -0.000000  -0.000000   0.000000  -0.000000
  219  C  9 YZ    0.000000  -0.000000  -0.000000   0.000000  -0.000000
  220  C  9 XX   -0.000014  -0.000109  -0.000372  -0.000440   0.000563
  221  C  9 YY   -0.000015  -0.000434  -0.000406  -0.000443   0.000512
  222  C  9 ZZ   -0.000069  -0.000050  -0.000268  -0.000313   0.000261
  223  C  9 XY    0.000061   0.000232   0.000036   0.000006  -0.000216
  224  C  9 XZ    0.000000  -0.000000  -0.000000   0.000000  -0.000000
  225  C  9 YZ    0.000000  -0.000000  -0.000000   0.000000  -0.000000
  226  C 10  S    0.002294  -0.003828  -0.167502   0.174261   0.104085
  227  C 10  S    0.001928  -0.003161  -0.138394   0.143988   0.085981
  228  C 10  X    0.000021  -0.000010  -0.000009   0.000015   0.000051
  229  C 10  Y    0.000007  -0.000009   0.000023  -0.000028   0.000080
  230  C 10  Z    0.000000  -0.000000  -0.000000   0.000000  -0.000000
  231  C 10  S   -0.000223  -0.000405  -0.002238   0.002248   0.001090
  232  C 10  X   -0.000145  -0.000012  -0.000253   0.000214   0.000222
  233  C 10  Y   -0.000005  -0.000000   0.000009  -0.000013   0.000093
  234  C 10  Z    0.000000  -0.000000  -0.000000   0.000000  -0.000000
  235  C 10  S    0.000078   0.000282  -0.000661   0.000786   0.001413
  236  C 10  X   -0.000018   0.000103   0.000068  -0.000116  -0.000067
  237  C 10  Y   -0.000041   0.000114   0.000072   0.000064  -0.000542
  238  C 10  Z    0.000000  -0.000000  -0.000000   0.000000  -0.000000
  239  C 10 XX    0.000004   0.000001   0.000194  -0.000208  -0.000088
  240  C 10 YY    0.000023   0.000002   0.000188  -0.000187  -0.000192
  241  C 10 ZZ    0.000027  -0.000002   0.000431  -0.000437  -0.000295
  242  C 10 XY    0.000020  -0.000006  -0.000066   0.000058   0.000058
  243  C 10 XZ    0.000000  -0.000000  -0.000000   0.000000  -0.000000
  244  C 10 YZ    0.000000  -0.000000  -0.000000   0.000000  -0.000000
  245  C 10 XX   -0.000014  -0.000109   0.000372  -0.000440  -0.000563
  246  C 10 YY   -0.000015  -0.000434   0.000406  -0.000443  -0.000512
  247  C 10 ZZ   -0.000069  -0.000050   0.000268  -0.000313  -0.000261
  248  C 10 XY   -0.000061  -0.000232   0.000036  -0.000006  -0.000216
  249  C 10 XZ    0.000000  -0.000000  -0.000000   0.000000  -0.000000
  250  C 10 YZ    0.000000  -0.000000  -0.000000   0.000000  -0.000000
  251  H 11  S   -0.000001  -0.000024   0.000153   0.000133   0.000208
  252  H 11  S   -0.000141   0.000063   0.000132   0.000076   0.000242
  253  H 11  S    0.000024   0.000143  -0.000351  -0.000155  -0.000470
  254  H 12  S   -0.000001  -0.000024  -0.000153   0.000133  -0.000208
  255  H 12  S   -0.000141   0.000063  -0.000132   0.000076  -0.000242
  256  H 12  S    0.000024   0.000143   0.000351  -0.000155   0.000470
  257  H 13  S   -0.000001   0.000024   0.000153   0.000133  -0.000208
  258  H 13  S   -0.000141  -0.000063   0.000132   0.000076  -0.000242
  259  H 13  S    0.000024  -0.000143  -0.000351  -0.000155   0.000470
  260  H 14  S   -0.000001   0.000024  -0.000153   0.000133   0.000208
  261  H 14  S   -0.000141  -0.000063  -0.000132   0.000076   0.000242
  262  H 14  S    0.000024  -0.000143   0.000351  -0.000155  -0.000470
  263  H 15  S   -0.000010   0.000015   0.000098   0.000103   0.000062
  264  H 15  S   -0.000054  -0.000020   0.000078   0.000082   0.000124
  265  H 15  S    0.000003   0.000011  -0.000107  -0.000142  -0.000087
  266  H 16  S   -0.000010   0.000015  -0.000098   0.000103  -0.000062
  267  H 16  S   -0.000054  -0.000020  -0.000078   0.000082  -0.000124
  268  H 16  S    0.000003   0.000011   0.000107  -0.000142   0.000087
  269  H 17  S   -0.000010  -0.000015   0.000098   0.000103  -0.000062
  270  H 17  S   -0.000054   0.000020   0.000078   0.000082  -0.000124
  271  H 17  S    0.000003  -0.000011  -0.000107  -0.000142   0.000087
  272  H 18  S   -0.000010  -0.000015  -0.000098   0.000103   0.000062
  273  H 18  S   -0.000054   0.000020  -0.000078   0.000082   0.000124
  274  H 18  S    0.000003  -0.000011   0.000107  -0.000142  -0.000087

                      6          7          8          9         10
                  -11.2289   -11.2277   -11.2277   -11.2269   -11.2268
                     B2U        B3U        AG         B1G        B2U 
    1  C  1  S   -0.050876  -0.000000   0.024577   0.000000   0.015427
    2  C  1  S   -0.042067  -0.000000   0.020339   0.000000   0.012748
    3  C  1  X   -0.000000  -0.000081   0.000000  -0.000078  -0.000000
    4  C  1  Y   -0.000084  -0.000000   0.000075   0.000000   0.000007
    5  C  1  Z   -0.000000  -0.000000   0.000000   0.000000  -0.000000
    6  C  1  S   -0.000053  -0.000000  -0.000262   0.000000   0.001411
    7  C  1  X   -0.000000  -0.000350   0.000000  -0.000042  -0.000000
    8  C  1  Y    0.000045  -0.000000   0.000106   0.000000   0.000218
    9  C  1  Z   -0.000000  -0.000000   0.000000   0.000000  -0.000000
   10  C  1  S   -0.001310  -0.000000   0.000749   0.000000  -0.001782
   11  C  1  X   -0.000000  -0.000321   0.000000  -0.001528  -0.000000
   12  C  1  Y   -0.000300  -0.000000   0.000048   0.000000   0.000162
   13  C  1  Z   -0.000000  -0.000000   0.000000   0.000000  -0.000000
   14  C  1 XX    0.000249  -0.000000  -0.000142   0.000000  -0.000095
   15  C  1 YY    0.000138  -0.000000  -0.000046   0.000000  -0.000059
   16  C  1 ZZ    0.000134  -0.000000  -0.000054   0.000000  -0.000021
   17  C  1 XY   -0.000000   0.000062   0.000000   0.000053  -0.000000
   18  C  1 XZ   -0.000000  -0.000000   0.000000   0.000000  -0.000000
   19  C  1 YZ   -0.000000  -0.000000   0.000000   0.000000  -0.000000
   20  C  1 XX   -0.000451  -0.000000  -0.000083   0.000000   0.000876
   21  C  1 YY    0.000353  -0.000000  -0.000199   0.000000   0.001365
   22  C  1 ZZ    0.000445  -0.000000  -0.000298   0.000000   0.000273
   23  C  1 XY   -0.000000  -0.000008   0.000000  -0.000379  -0.000000
   24  C  1 XZ   -0.000000  -0.000000   0.000000   0.000000  -0.000000
   25  C  1 YZ   -0.000000  -0.000000   0.000000   0.000000  -0.000000
   26  C  2  S    0.050876  -0.000000   0.024577   0.000000  -0.015427
   27  C  2  S    0.042067  -0.000000   0.020339   0.000000  -0.012748
   28  C  2  X   -0.000000  -0.000081   0.000000   0.000078  -0.000000
   29  C  2  Y   -0.000084  -0.000000  -0.000075   0.000000   0.000007
   30  C  2  Z   -0.000000  -0.000000   0.000000   0.000000  -0.000000
   31  C  2  S    0.000053  -0.000000  -0.000262   0.000000  -0.001411
   32  C  2  X   -0.000000  -0.000350   0.000000   0.000042  -0.000000
   33  C  2  Y    0.000045  -0.000000  -0.000106   0.000000   0.000218
   34  C  2  Z   -0.000000  -0.000000   0.000000   0.000000  -0.000000
   35  C  2  S    0.001310  -0.000000   0.000749   0.000000   0.001782
   36  C  2  X   -0.000000  -0.000321   0.000000   0.001528  -0.000000
   37  C  2  Y   -0.000300  -0.000000  -0.000048   0.000000   0.000162
   38  C  2  Z   -0.000000  -0.000000   0.000000   0.000000  -0.000000
   39  C  2 XX   -0.000249  -0.000000  -0.000142   0.000000   0.000095
   40  C  2 YY   -0.000138  -0.000000  -0.000046   0.000000   0.000059
   41  C  2 ZZ   -0.000134  -0.000000  -0.000054   0.000000   0.000021
   42  C  2 XY   -0.000000  -0.000062   0.000000   0.000053  -0.000000
   43  C  2 XZ   -0.000000  -0.000000   0.000000   0.000000  -0.000000
   44  C  2 YZ   -0.000000  -0.000000   0.000000   0.000000  -0.000000
   45  C  2 XX    0.000451  -0.000000  -0.000083   0.000000  -0.000876
   46  C  2 YY   -0.000353  -0.000000  -0.000199   0.000000  -0.001365
   47  C  2 ZZ   -0.000445  -0.000000  -0.000298   0.000000  -0.000273
   48  C  2 XY   -0.000000   0.000008   0.000000  -0.000379  -0.000000
   49  C  2 XZ   -0.000000  -0.000000   0.000000   0.000000  -0.000000
   50  C  2 YZ   -0.000000  -0.000000   0.000000   0.000000  -0.000000
   51  C  3  S    0.257476  -0.167621  -0.173537  -0.104174  -0.108161
   52  C  3  S    0.212725  -0.138510  -0.143404  -0.086089  -0.089367
   53  C  3  X   -0.000008   0.000135   0.000119   0.000132   0.000109
   54  C  3  Y   -0.000083   0.000080   0.000092   0.000082   0.000106
   55  C  3  Z   -0.000000  -0.000000   0.000000   0.000000  -0.000000
   56  C  3  S    0.003407  -0.001542  -0.001640  -0.001199  -0.001830
   57  C  3  X    0.000106  -0.000043  -0.000026   0.000021   0.000074
   58  C  3  Y    0.000408  -0.000036  -0.000079  -0.000024  -0.000147
   59  C  3  Z   -0.000000  -0.000000   0.000000   0.000000  -0.000000
   60  C  3  S    0.001047  -0.001665  -0.001998   0.000306  -0.000216
   61  C  3  X   -0.000008  -0.000333  -0.000265  -0.000316  -0.000508
   62  C  3  Y   -0.000185   0.000202  -0.000076   0.000735   0.000125
   63  C  3  Z   -0.000000  -0.000000   0.000000   0.000000  -0.000000
   64  C  3 XX   -0.000368   0.000304   0.000304   0.000215   0.000241
   65  C  3 YY   -0.000416   0.000278   0.000298   0.000178   0.000200
   66  C  3 ZZ   -0.000706   0.000474   0.000481   0.000288   0.000308
   67  C  3 XY    0.000042   0.000019   0.000020   0.000034   0.000035
   68  C  3 XZ   -0.000000  -0.000000   0.000000   0.000000  -0.000000
   69  C  3 YZ   -0.000000  -0.000000   0.000000   0.000000  -0.000000
   70  C  3 XX   -0.000608   0.000583   0.000559  -0.000092  -0.000603
   71  C  3 YY   -0.000448   0.000745   0.000589   0.000373   0.000031
   72  C  3 ZZ   -0.000501   0.000548   0.000579   0.000311   0.000143
   73  C  3 XY   -0.000069  -0.000151  -0.000123  -0.000088  -0.000160
   74  C  3 XZ   -0.000000  -0.000000   0.000000   0.000000  -0.000000
   75  C  3 YZ   -0.000000  -0.000000   0.000000   0.000000  -0.000000
   76  C  4  S    0.257476   0.167621  -0.173537   0.104174  -0.108161
   77  C  4  S    0.212725   0.138510  -0.143404   0.086089  -0.089367
   78  C  4  X    0.000008   0.000135  -0.000119   0.000132  -0.000109
   79  C  4  Y   -0.000083  -0.000080   0.000092  -0.000082   0.000106
   80  C  4  Z   -0.000000  -0.000000   0.000000   0.000000  -0.000000
   81  C  4  S    0.003407   0.001542  -0.001640   0.001199  -0.001830
   82  C  4  X   -0.000106  -0.000043   0.000026   0.000021  -0.000074
   83  C  4  Y    0.000408   0.000036  -0.000079   0.000024  -0.000147
   84  C  4  Z   -0.000000  -0.000000   0.000000   0.000000  -0.000000
   85  C  4  S    0.001047   0.001665  -0.001998  -0.000306  -0.000216
   86  C  4  X    0.000008  -0.000333   0.000265  -0.000316   0.000508
   87  C  4  Y   -0.000185  -0.000202  -0.000076  -0.000735   0.000125
   88  C  4  Z   -0.000000  -0.000000   0.000000   0.000000  -0.000000
   89  C  4 XX   -0.000368  -0.000304   0.000304  -0.000215   0.000241
   90  C  4 YY   -0.000416  -0.000278   0.000298  -0.000178   0.000200
   91  C  4 ZZ   -0.000706  -0.000474   0.000481  -0.000288   0.000308
   92  C  4 XY   -0.000042   0.000019  -0.000020   0.000034  -0.000035
   93  C  4 XZ   -0.000000  -0.000000   0.000000   0.000000  -0.000000
   94  C  4 YZ   -0.000000  -0.000000   0.000000   0.000000  -0.000000
   95  C  4 XX   -0.000608  -0.000583   0.000559   0.000092  -0.000603
   96  C  4 YY   -0.000448  -0.000745   0.000589  -0.000373   0.000031
   97  C  4 ZZ   -0.000501  -0.000548   0.000579  -0.000311   0.000143
   98  C  4 XY    0.000069  -0.000151   0.000123  -0.000088   0.000160
   99  C  4 XZ   -0.000000  -0.000000   0.000000   0.000000  -0.000000
  100  C  4 YZ   -0.000000  -0.000000   0.000000   0.000000  -0.000000
  101  C  5  S   -0.257476  -0.167621  -0.173537   0.104174   0.108161
  102  C  5  S   -0.212725  -0.138510  -0.143404   0.086089   0.089367
  103  C  5  X    0.000008   0.000135   0.000119  -0.000132  -0.000109
  104  C  5  Y   -0.000083  -0.000080  -0.000092   0.000082   0.000106
  105  C  5  Z   -0.000000  -0.000000   0.000000   0.000000  -0.000000
  106  C  5  S   -0.003407  -0.001542  -0.001640   0.001199   0.001830
  107  C  5  X   -0.000106  -0.000043  -0.000026  -0.000021  -0.000074
  108  C  5  Y    0.000408   0.000036   0.000079  -0.000024  -0.000147
  109  C  5  Z   -0.000000  -0.000000   0.000000   0.000000  -0.000000
  110  C  5  S   -0.001047  -0.001665  -0.001998  -0.000306   0.000216
  111  C  5  X    0.000008  -0.000333  -0.000265   0.000316   0.000508
  112  C  5  Y   -0.000185  -0.000202   0.000076   0.000735   0.000125
  113  C  5  Z   -0.000000  -0.000000   0.000000   0.000000  -0.000000
  114  C  5 XX    0.000368   0.000304   0.000304  -0.000215  -0.000241
  115  C  5 YY    0.000416   0.000278   0.000298  -0.000178  -0.000200
  116  C  5 ZZ    0.000706   0.000474   0.000481  -0.000288  -0.000308
  117  C  5 XY    0.000042  -0.000019  -0.000020   0.000034   0.000035
  118  C  5 XZ   -0.000000  -0.000000   0.000000   0.000000  -0.000000
  119  C  5 YZ   -0.000000  -0.000000   0.000000   0.000000  -0.000000
  120  C  5 XX    0.000608   0.000583   0.000559   0.000092   0.000603
  121  C  5 YY    0.000448   0.000745   0.000589  -0.000373  -0.000031
  122  C  5 ZZ    0.000501   0.000548   0.000579  -0.000311  -0.000143
  123  C  5 XY   -0.000069   0.000151   0.000123  -0.000088  -0.000160
  124  C  5 XZ   -0.000000  -0.000000   0.000000   0.000000  -0.000000
  125  C  5 YZ   -0.000000  -0.000000   0.000000   0.000000  -0.000000
  126  C  6  S   -0.257476   0.167621  -0.173537  -0.104174   0.108161
  127  C  6  S   -0.212725   0.138510  -0.143404  -0.086089   0.089367
  128  C  6  X   -0.000008   0.000135  -0.000119  -0.000132   0.000109
  129  C  6  Y   -0.000083   0.000080  -0.000092  -0.000082   0.000106
  130  C  6  Z   -0.000000  -0.000000   0.000000   0.000000  -0.000000
  131  C  6  S   -0.003407   0.001542  -0.001640  -0.001199   0.001830
  132  C  6  X    0.000106  -0.000043   0.000026  -0.000021   0.000074
  133  C  6  Y    0.000408  -0.000036   0.000079   0.000024  -0.000147
  134  C  6  Z   -0.000000  -0.000000   0.000000   0.000000  -0.000000
  135  C  6  S   -0.001047   0.001665  -0.001998   0.000306   0.000216
  136  C  6  X   -0.000008  -0.000333   0.000265   0.000316  -0.000508
  137  C  6  Y   -0.000185   0.000202   0.000076  -0.000735   0.000125
  138  C  6  Z   -0.000000  -0.000000   0.000000   0.000000  -0.000000
  139  C  6 XX    0.000368  -0.000304   0.000304   0.000215  -0.000241
  140  C  6 YY    0.000416  -0.000278   0.000298   0.000178  -0.000200
  141  C  6 ZZ    0.000706  -0.000474   0.000481   0.000288  -0.000308
  142  C  6 XY   -0.000042  -0.000019   0.000020   0.000034  -0.000035
  143  C  6 XZ   -0.000000  -0.000000   0.000000   0.000000  -0.000000
  144  C  6 YZ   -0.000000  -0.000000   0.000000   0.000000  -0.000000
  145  C  6 XX    0.000608  -0.000583   0.000559  -0.000092   0.000603
  146  C  6 YY    0.000448  -0.000745   0.000589   0.000373  -0.000031
  147  C  6 ZZ    0.000501  -0.000548   0.000579   0.000311  -0.000143
  148  C  6 XY    0.000069   0.000151  -0.000123  -0.000088   0.000160
  149  C  6 XZ   -0.000000  -0.000000   0.000000   0.000000  -0.000000
  150  C  6 YZ   -0.000000  -0.000000   0.000000   0.000000  -0.000000
  151  C  7  S    0.108541   0.226484   0.221313   0.261861   0.260018
  152  C  7  S    0.089685   0.187146   0.182867   0.216386   0.214854
  153  C  7  X   -0.000069   0.000136   0.000144   0.000129   0.000141
  154  C  7  Y   -0.000073   0.000131   0.000127  -0.000038  -0.000037
  155  C  7  Z   -0.000000  -0.000000   0.000000   0.000000  -0.000000
  156  C  7  S    0.000953   0.002467   0.002474   0.002770   0.003111
  157  C  7  X   -0.000104  -0.000122  -0.000147  -0.000177  -0.000287
  158  C  7  Y   -0.000150   0.000188   0.000191  -0.000198  -0.000198
  159  C  7  Z   -0.000000  -0.000000   0.000000   0.000000  -0.000000
  160  C  7  S    0.001781   0.001979   0.001972   0.001433   0.001883
  161  C  7  X   -0.000148  -0.000070  -0.000098   0.000541   0.000100
  162  C  7  Y    0.000310  -0.000267  -0.000264  -0.000438  -0.000464
  163  C  7  Z   -0.000000  -0.000000   0.000000   0.000000  -0.000000
  164  C  7 XX   -0.000101  -0.000371  -0.000366  -0.000414  -0.000401
  165  C  7 YY   -0.000180  -0.000275  -0.000280  -0.000512  -0.000519
  166  C  7 ZZ   -0.000284  -0.000610  -0.000603  -0.000719  -0.000715
  167  C  7 XY    0.000057  -0.000006  -0.000007   0.000010  -0.000001
  168  C  7 XZ   -0.000000  -0.000000   0.000000   0.000000  -0.000000
  169  C  7 YZ   -0.000000  -0.000000   0.000000   0.000000  -0.000000
  170  C  7 XX   -0.000684  -0.000653  -0.000593  -0.000749  -0.000615
  171  C  7 YY   -0.000512  -0.000795  -0.000754  -0.000595  -0.000326
  172  C  7 ZZ   -0.000353  -0.000592  -0.000561  -0.000768  -0.000659
  173  C  7 XY   -0.000078   0.000122   0.000102   0.000231   0.000419
  174  C  7 XZ   -0.000000  -0.000000   0.000000   0.000000  -0.000000
  175  C  7 YZ   -0.000000  -0.000000   0.000000   0.000000  -0.000000
  176  C  8  S    0.108541  -0.226484   0.221313  -0.261861   0.260018
  177  C  8  S    0.089685  -0.187146   0.182867  -0.216386   0.214854
  178  C  8  X    0.000069   0.000136  -0.000144   0.000129  -0.000141
  179  C  8  Y   -0.000073  -0.000131   0.000127   0.000038  -0.000037
  180  C  8  Z   -0.000000  -0.000000   0.000000   0.000000  -0.000000
  181  C  8  S    0.000953  -0.002467   0.002474  -0.002770   0.003111
  182  C  8  X    0.000104  -0.000122   0.000147  -0.000177   0.000287
  183  C  8  Y   -0.000150  -0.000188   0.000191   0.000198  -0.000198
  184  C  8  Z   -0.000000  -0.000000   0.000000   0.000000  -0.000000
  185  C  8  S    0.001781  -0.001979   0.001972  -0.001433   0.001883
  186  C  8  X    0.000148  -0.000070   0.000098   0.000541  -0.000100
  187  C  8  Y    0.000310   0.000267  -0.000264   0.000438  -0.000464
  188  C  8  Z   -0.000000  -0.000000   0.000000   0.000000  -0.000000
  189  C  8 XX   -0.000101   0.000371  -0.000366   0.000414  -0.000401
  190  C  8 YY   -0.000180   0.000275  -0.000280   0.000512  -0.000519
  191  C  8 ZZ   -0.000284   0.000610  -0.000603   0.000719  -0.000715
  192  C  8 XY   -0.000057  -0.000006   0.000007   0.000010   0.000001
  193  C  8 XZ   -0.000000  -0.000000   0.000000   0.000000  -0.000000
  194  C  8 YZ   -0.000000  -0.000000   0.000000   0.000000  -0.000000
  195  C  8 XX   -0.000684   0.000653  -0.000593   0.000749  -0.000615
  196  C  8 YY   -0.000512   0.000795  -0.000754   0.000595  -0.000326
  197  C  8 ZZ   -0.000353   0.000592  -0.000561   0.000768  -0.000659
  198  C  8 XY    0.000078   0.000122  -0.000102   0.000231  -0.000419
  199  C  8 XZ   -0.000000  -0.000000   0.000000   0.000000  -0.000000
  200  C  8 YZ   -0.000000  -0.000000   0.000000   0.000000  -0.000000
  201  C  9  S   -0.108541   0.226484   0.221313  -0.261861  -0.260018
  202  C  9  S   -0.089685   0.187146   0.182867  -0.216386  -0.214854
  203  C  9  X    0.000069   0.000136   0.000144  -0.000129  -0.000141
  204  C  9  Y   -0.000073  -0.000131  -0.000127  -0.000038  -0.000037
  205  C  9  Z   -0.000000  -0.000000   0.000000   0.000000  -0.000000
  206  C  9  S   -0.000953   0.002467   0.002474  -0.002770  -0.003111
  207  C  9  X    0.000104  -0.000122  -0.000147   0.000177   0.000287
  208  C  9  Y   -0.000150  -0.000188  -0.000191  -0.000198  -0.000198
  209  C  9  Z   -0.000000  -0.000000   0.000000   0.000000  -0.000000
  210  C  9  S   -0.001781   0.001979   0.001972  -0.001433  -0.001883
  211  C  9  X    0.000148  -0.000070  -0.000098  -0.000541  -0.000100
  212  C  9  Y    0.000310   0.000267   0.000264  -0.000438  -0.000464
  213  C  9  Z   -0.000000  -0.000000   0.000000   0.000000  -0.000000
  214  C  9 XX    0.000101  -0.000371  -0.000366   0.000414   0.000401
  215  C  9 YY    0.000180  -0.000275  -0.000280   0.000512   0.000519
  216  C  9 ZZ    0.000284  -0.000610  -0.000603   0.000719   0.000715
  217  C  9 XY    0.000057   0.000006   0.000007   0.000010  -0.000001
  218  C  9 XZ   -0.000000  -0.000000   0.000000   0.000000  -0.000000
  219  C  9 YZ   -0.000000  -0.000000   0.000000   0.000000  -0.000000
  220  C  9 XX    0.000684  -0.000653  -0.000593   0.000749   0.000615
  221  C  9 YY    0.000512  -0.000795  -0.000754   0.000595   0.000326
  222  C  9 ZZ    0.000353  -0.000592  -0.000561   0.000768   0.000659
  223  C  9 XY   -0.000078  -0.000122  -0.000102   0.000231   0.000419
  224  C  9 XZ   -0.000000  -0.000000   0.000000   0.000000  -0.000000
  225  C  9 YZ   -0.000000  -0.000000   0.000000   0.000000  -0.000000
  226  C 10  S   -0.108541  -0.226484   0.221313   0.261861  -0.260018
  227  C 10  S   -0.089685  -0.187146   0.182867   0.216386  -0.214854
  228  C 10  X   -0.000069   0.000136  -0.000144  -0.000129   0.000141
  229  C 10  Y   -0.000073   0.000131  -0.000127   0.000038  -0.000037
  230  C 10  Z   -0.000000  -0.000000   0.000000   0.000000  -0.000000
  231  C 10  S   -0.000953  -0.002467   0.002474   0.002770  -0.003111
  232  C 10  X   -0.000104  -0.000122   0.000147   0.000177  -0.000287
  233  C 10  Y   -0.000150   0.000188  -0.000191   0.000198  -0.000198
  234  C 10  Z   -0.000000  -0.000000   0.000000   0.000000  -0.000000
  235  C 10  S   -0.001781  -0.001979   0.001972   0.001433  -0.001883
  236  C 10  X   -0.000148  -0.000070   0.000098  -0.000541   0.000100
  237  C 10  Y    0.000310  -0.000267   0.000264   0.000438  -0.000464
  238  C 10  Z   -0.000000  -0.000000   0.000000   0.000000  -0.000000
  239  C 10 XX    0.000101   0.000371  -0.000366  -0.000414   0.000401
  240  C 10 YY    0.000180   0.000275  -0.000280  -0.000512   0.000519
  241  C 10 ZZ    0.000284   0.000610  -0.000603  -0.000719   0.000715
  242  C 10 XY   -0.000057   0.000006  -0.000007   0.000010   0.000001
  243  C 10 XZ   -0.000000  -0.000000   0.000000   0.000000  -0.000000
  244  C 10 YZ   -0.000000  -0.000000   0.000000   0.000000  -0.000000
  245  C 10 XX    0.000684   0.000653  -0.000593  -0.000749   0.000615
  246  C 10 YY    0.000512   0.000795  -0.000754  -0.000595   0.000326
  247  C 10 ZZ    0.000353   0.000592  -0.000561  -0.000768   0.000659
  248  C 10 XY    0.000078  -0.000122   0.000102   0.000231  -0.000419
  249  C 10 XZ   -0.000000  -0.000000   0.000000   0.000000  -0.000000
  250  C 10 YZ   -0.000000  -0.000000   0.000000   0.000000  -0.000000
  251  H 11  S    0.000175  -0.000136  -0.000127  -0.000111  -0.000098
  252  H 11  S    0.000022  -0.000145  -0.000090   0.000047   0.000083
  253  H 11  S   -0.000138   0.000246   0.000123   0.000209   0.000003
  254  H 12  S    0.000175   0.000136  -0.000127   0.000111  -0.000098
  255  H 12  S    0.000022   0.000145  -0.000090  -0.000047   0.000083
  256  H 12  S   -0.000138  -0.000246   0.000123  -0.000209   0.000003
  257  H 13  S   -0.000175  -0.000136  -0.000127   0.000111   0.000098
  258  H 13  S   -0.000022  -0.000145  -0.000090  -0.000047  -0.000083
  259  H 13  S    0.000138   0.000246   0.000123  -0.000209  -0.000003
  260  H 14  S   -0.000175   0.000136  -0.000127  -0.000111   0.000098
  261  H 14  S   -0.000022   0.000145  -0.000090   0.000047  -0.000083
  262  H 14  S    0.000138  -0.000246   0.000123   0.000209  -0.000003
  263  H 15  S    0.000062   0.000163   0.000161   0.000213   0.000222
  264  H 15  S    0.000210   0.000164   0.000132   0.000039   0.000102
  265  H 15  S   -0.000109  -0.000203  -0.000182  -0.000327  -0.000249
  266  H 16  S    0.000062  -0.000163   0.000161  -0.000213   0.000222
  267  H 16  S    0.000210  -0.000164   0.000132  -0.000039   0.000102
  268  H 16  S   -0.000109   0.000203  -0.000182   0.000327  -0.000249
  269  H 17  S   -0.000062   0.000163   0.000161  -0.000213  -0.000222
  270  H 17  S   -0.000210   0.000164   0.000132  -0.000039  -0.000102
  271  H 17  S    0.000109  -0.000203  -0.000182   0.000327   0.000249
  272  H 18  S   -0.000062  -0.000163   0.000161   0.000213  -0.000222
  273  H 18  S   -0.000210  -0.000164   0.000132   0.000039  -0.000102
  274  H 18  S    0.000109   0.000203  -0.000182  -0.000327   0.000249

                     11         12         13         14         15
                   -1.1797    -1.1136    -1.0519    -1.0083    -0.9847
                     AG         B3U        B2U        AG         B1G 
    1  C  1  S   -0.055258   0.000000  -0.041165  -0.051197  -0.000000
    2  C  1  S   -0.085902   0.000000  -0.064261  -0.080003  -0.000000
    3  C  1  X   -0.000000   0.034503   0.000000  -0.000000   0.038777
    4  C  1  Y    0.010858   0.000000  -0.038865   0.017281  -0.000000
    5  C  1  Z   -0.000000   0.000000   0.000000  -0.000000  -0.000000
    6  C  1  S    0.227708   0.000000   0.154750   0.213172  -0.000000
    7  C  1  X   -0.000000   0.060854   0.000000  -0.000000   0.069042
    8  C  1  Y    0.017185   0.000000  -0.070967   0.028467  -0.000000
    9  C  1  Z   -0.000000   0.000000   0.000000  -0.000000  -0.000000
   10  C  1  S    0.055317   0.000000   0.042121   0.046482  -0.000000
   11  C  1  X   -0.000000   0.002301   0.000000  -0.000000  -0.017722
   12  C  1  Y    0.001008   0.000000  -0.039827   0.014278  -0.000000
   13  C  1  Z   -0.000000   0.000000   0.000000  -0.000000  -0.000000
   14  C  1 XX    0.009958   0.000000   0.013127   0.005438  -0.000000
   15  C  1 YY    0.010288   0.000000   0.001569   0.012249  -0.000000
   16  C  1 ZZ   -0.002691   0.000000  -0.001537  -0.001166  -0.000000
   17  C  1 XY   -0.000000  -0.002692   0.000000  -0.000000  -0.005613
   18  C  1 XZ   -0.000000   0.000000   0.000000  -0.000000  -0.000000
   19  C  1 YZ   -0.000000   0.000000   0.000000  -0.000000  -0.000000
   20  C  1 XX    0.013667   0.000000   0.007874   0.005415  -0.000000
   21  C  1 YY    0.018362   0.000000  -0.015015   0.021635  -0.000000
   22  C  1 ZZ    0.007429   0.000000   0.001706   0.008694  -0.000000
   23  C  1 XY   -0.000000  -0.003784   0.000000  -0.000000  -0.043698
   24  C  1 XZ   -0.000000   0.000000   0.000000  -0.000000  -0.000000
[...]
  2   C            X -0.00000000  0.00179632 -0.00000000 -0.00194667  0.00000000
                   Y  0.00899036  0.00000000  0.00065958 -0.00000000 -0.00032673
                   Z  0.00000000 -0.00000000  0.00000000  0.00000000  0.00000000
  3   C            X  0.09795792  0.00062477  0.00098611  0.00015900  0.00078622
                   Y  0.02387589 -0.03038878 -0.02663771 -0.03832657 -0.03641512
                   Z  0.00000000  0.00000000  0.00000000  0.00000000  0.00000000
  4   C            X -0.09795792  0.00062477 -0.00098611  0.00015900 -0.00078622
                   Y  0.02387589  0.03038878 -0.02663771  0.03832657 -0.03641512
                   Z  0.00000000 -0.00000000 -0.00000000  0.00000000  0.00000000
  5   C            X -0.09795792 -0.00062477 -0.00098611  0.00015900  0.00078622
                   Y  0.02387589 -0.03038878 -0.02663771  0.03832657  0.03641512
                   Z  0.00000000 -0.00000000 -0.00000000 -0.00000000 -0.00000000
  6   C            X  0.09795792 -0.00062477  0.00098611  0.00015900 -0.00078622
                   Y  0.02387589  0.03038878 -0.02663771 -0.03832657  0.03641512
                   Z -0.00000000 -0.00000000  0.00000000  0.00000000 -0.00000000
  7   C            X -0.08021111 -0.02345633 -0.02698544 -0.01269154 -0.01630665
                   Y -0.04206607  0.01369854  0.01516269  0.00937348  0.01097264
                   Z  0.00000000  0.00000000 -0.00000000  0.00000000 -0.00000000
  8   C            X  0.08021111 -0.02345633  0.02698544 -0.01269154  0.01630665
                   Y -0.04206607 -0.01369854  0.01516269 -0.00937348  0.01097264
                   Z -0.00000000  0.00000000  0.00000000 -0.00000000 -0.00000000
  9   C            X  0.08021111  0.02345633  0.02698544 -0.01269154 -0.01630665
                   Y -0.04206607  0.01369854  0.01516269 -0.00937348 -0.01097264
                   Z  0.00000000 -0.00000000 -0.00000000  0.00000000  0.00000000
 10   C            X -0.08021111  0.02345633 -0.02698544 -0.01269154  0.01630665
                   Y -0.04206607 -0.01369854  0.01516269  0.00937348 -0.01097264
                   Z  0.00000000 -0.00000000  0.00000000  0.00000000  0.00000000
 11   H            X -0.10404014 -0.00115069 -0.00229703 -0.00072251 -0.00309431
                   Y  0.03289895  0.35282943  0.31116346  0.43893747  0.41954407
                   Z -0.00000000  0.00000000  0.00000000 -0.00000000 -0.00000000
 12   H            X  0.10404014 -0.00115069  0.00229703 -0.00072251  0.00309431
                   Y  0.03289895 -0.35282943  0.31116346 -0.43893747  0.41954407
                   Z -0.00000000  0.00000000  0.00000000 -0.00000000  0.00000000
 13   H            X  0.10404014  0.00115069  0.00229703 -0.00072251 -0.00309431
                   Y  0.03289895  0.35282943  0.31116346 -0.43893747 -0.41954407
                   Z -0.00000000  0.00000000  0.00000000 -0.00000000  0.00000000
 14   H            X -0.10404014  0.00115069 -0.00229703 -0.00072251  0.00309431
                   Y  0.03289895 -0.35282943  0.31116346  0.43893747 -0.41954407
                   Z  0.00000000  0.00000000 -0.00000000 -0.00000000 -0.00000000
 15   H            X  0.00305073  0.28021823  0.31545561  0.16153470  0.19632642
                   Y  0.13016513 -0.15887653 -0.17845916 -0.09392383 -0.11441689
                   Z  0.00000000  0.00000000  0.00000000 -0.00000000  0.00000000
 16   H            X -0.00305073  0.28021823 -0.31545561  0.16153470 -0.19632642
                   Y  0.13016513  0.15887653 -0.17845916  0.09392383 -0.11441689
                   Z  0.00000000 -0.00000000 -0.00000000  0.00000000  0.00000000
 17   H            X -0.00305073 -0.28021823 -0.31545561  0.16153470  0.19632642
                   Y  0.13016513 -0.15887653 -0.17845916  0.09392383  0.11441689
                   Z  0.00000000 -0.00000000  0.00000000  0.00000000 -0.00000000
 18   H            X  0.00305073 -0.28021823  0.31545561  0.16153470 -0.19632642
                   Y  0.13016513  0.15887653 -0.17845916 -0.09392383  0.11441689
                   Z -0.00000000  0.00000000 -0.00000000 -0.00000000  0.00000000

 TRANS. SAYVETZ    X  0.00000000  0.00000000 -0.00000000 -0.00000002 -0.00000000
                   Y -0.00000012  0.00000000 -0.00000001 -0.00000000  0.00000000
                   Z  0.00000000  0.00000000  0.00000000  0.00000000  0.00000000
               TOTAL  0.00000012  0.00000000  0.00000001  0.00000002  0.00000000

   ROT. SAYVETZ    X  0.00000000 -0.00000000 -0.00000000  0.00000000 -0.00000000
                   Y -0.00000000 -0.00000000  0.00000000  0.00000000 -0.00000000
                   Z  0.00000000 -0.00016903  0.00000000  0.00000000  0.00000000
               TOTAL  0.00000000  0.00016903  0.00000000  0.00000000  0.00000000

                           51          52          53          54
       FREQUENCY:      3310.79     3314.37     3327.01     3329.11  
        SYMMETRY:         B1G         B2U         B3U         AG  
    REDUCED MASS:      1.09584     1.09652     1.09853     1.09788
    IR INTENSITY:      0.00000     2.07917     1.70323     0.00000

  1   C            X -0.00215092  0.00000000  0.00145076  0.00000000
                   Y  0.00000000  0.00124064 -0.00000000  0.00063860
                   Z  0.00000000 -0.00000000  0.00000000  0.00000000
  2   C            X  0.00215092 -0.00000000  0.00145076  0.00000000
                   Y  0.00000000  0.00124064  0.00000000 -0.00063860
                   Z -0.00000000 -0.00000000  0.00000000 -0.00000000
  3   C            X -0.00136324 -0.00193392  0.00206045 -0.00194311
                   Y -0.02883560 -0.03252582  0.01724458 -0.02079523
                   Z -0.00000000 -0.00000000  0.00000000 -0.00000000
  4   C            X -0.00136324  0.00193392  0.00206045  0.00194311
                   Y  0.02883560 -0.03252582 -0.01724458 -0.02079523
                   Z  0.00000000  0.00000000  0.00000000 -0.00000000
  5   C            X  0.00136324  0.00193392  0.00206045 -0.00194311
                   Y -0.02883560 -0.03252582 -0.01724458  0.02079523
                   Z  0.00000000  0.00000000 -0.00000000  0.00000000
  6   C            X  0.00136324 -0.00193392  0.00206045  0.00194311
                   Y  0.02883560 -0.03252582  0.01724458  0.02079523
                   Z -0.00000000 -0.00000000  0.00000000 -0.00000000
  7   C            X  0.02866479  0.02565082 -0.03447329  0.03284932
                   Y -0.01301606 -0.01091926  0.01966718 -0.01870915
                   Z -0.00000000  0.00000000  0.00000000  0.00000000
  8   C            X  0.02866479 -0.02565082 -0.03447329 -0.03284932
                   Y  0.01301606 -0.01091926 -0.01966718 -0.01870915
                   Z  0.00000000 -0.00000000  0.00000000  0.00000000
  9   C            X -0.02866479 -0.02565082 -0.03447329  0.03284932
                   Y -0.01301606 -0.01091926 -0.01966718  0.01870915
                   Z  0.00000000 -0.00000000 -0.00000000  0.00000000
 10   C            X -0.02866479  0.02565082 -0.03447329 -0.03284932
                   Y  0.01301606 -0.01091926  0.01966718  0.01870915
                   Z  0.00000000 -0.00000000  0.00000000  0.00000000
 11   H            X  0.00127187 -0.00004505 -0.00255533  0.00146753
                   Y  0.32024845  0.36069369 -0.18515598  0.22600305
                   Z -0.00000000 -0.00000000 -0.00000000  0.00000000
 12   H            X  0.00127187  0.00004505 -0.00255533 -0.00146753
                   Y -0.32024845  0.36069369  0.18515598  0.22600305
                   Z -0.00000000 -0.00000000  0.00000000 -0.00000000
 13   H            X -0.00127187  0.00004505 -0.00255533  0.00146753
                   Y  0.32024845  0.36069369  0.18515598 -0.22600305
                   Z -0.00000000 -0.00000000  0.00000000 -0.00000000
 14   H            X -0.00127187 -0.00004505 -0.00255533 -0.00146753
                   Y -0.32024845  0.36069369 -0.18515598 -0.22600305
                   Z -0.00000000 -0.00000000 -0.00000000 -0.00000000
 15   H            X -0.30788144 -0.27164346  0.37985245 -0.36322348
                   Y  0.17016597  0.14921339 -0.21707649  0.20696751
                   Z -0.00000000 -0.00000000 -0.00000000 -0.00000000
 16   H            X -0.30788144  0.27164346  0.37985245  0.36322348
                   Y -0.17016597  0.14921339  0.21707649  0.20696751
                   Z  0.00000000  0.00000000  0.00000000 -0.00000000
 17   H            X  0.30788144  0.27164346  0.37985245 -0.36322348
                   Y  0.17016597  0.14921339  0.21707649 -0.20696751
                   Z -0.00000000  0.00000000 -0.00000000  0.00000000
 18   H            X  0.30788144 -0.27164346  0.37985245  0.36322348
                   Y -0.17016597  0.14921339 -0.21707649 -0.20696751
                   Z -0.00000000  0.00000000 -0.00000000 -0.00000000

 TRANS. SAYVETZ    X -0.00000000  0.00000000 -0.00000008  0.00000000
                   Y  0.00000000  0.00000002  0.00000000 -0.00000000
                   Z  0.00000000  0.00000000  0.00000000 -0.00000000
               TOTAL  0.00000000  0.00000002  0.00000008  0.00000000

   ROT. SAYVETZ    X -0.00000000 -0.00000000 -0.00000000  0.00000000
                   Y  0.00000000 -0.00000000  0.00000000  0.00000000
                   Z -0.00054953 -0.00000000  0.00000000  0.00000000
               TOTAL  0.00054953  0.00000000  0.00000000  0.00000000

 REFERENCE ON SAYVETZ CONDITIONS - A. SAYVETZ, J.CHEM.PHYS., 7, 383-389(1939).

 NOTE - THE MODES J,K ARE ORTHONORMALIZED ACCORDING TO
 SUM ON I   M(I) * (X(I,J)*X(I,K) + Y(I,J)*Y(I,K) + Z(I,J)*Z(I,K)) = DELTA(J,K)

  MODE FREQ(CM**-1)  SYMMETRY  RED. MASS  IR INTENS.
     1      10.309    B2G      5.020117    0.000000
     2       0.380    B1U      7.100821    0.000000
     3       0.009    B3U      7.114589    0.000000
     4       0.002    B2U      7.114589    0.000000
     5      20.592    B3G      3.863993    0.000000
     6      23.864    B1G      4.636563    0.000000
     7     186.790    B1U      4.199734    0.069052
     8     206.108    AU       3.380878    0.000000
     9     399.010    B2U      3.836572    0.047518
    10     437.234    B2G      3.157342    0.000000
    11     523.427    B3G      3.222019    0.000000
    12     528.676    B1U      2.532246    0.598931
    13     551.069    AG       6.585008    0.000000
    14     552.658    B1G      7.075896    0.000000
    15     677.610    B3U      6.449011    0.078796
    16     684.738    AU       3.233195    0.000000
    17     803.406    B2G      1.146586    0.000000
    18     820.966    AG       4.626570    0.000000
    19     849.300    B3G      3.084450    0.000000
    20     868.160    B2U      5.301765    0.033548
    21     875.472    B1U      1.356526    3.071579
    22     932.237    AU       1.274443    0.000000
    23     983.577    B3G      1.719793    0.000000
    24    1026.177    B1G      4.932875    0.000000
    25    1052.434    B2G      1.310508    0.000000
    26    1068.102    B1U      1.382267    0.054737
    27    1082.227    AU       1.313354    0.000000
    28    1087.792    B3G      1.316422    0.000000
    29    1092.776    B3U      2.934466    0.138933
    30    1111.992    AG       2.206049    0.000000
    31    1216.730    B3U      1.861533    0.000380
    32    1242.883    B2U      1.773510    0.093216
    33    1256.019    B1G      1.296169    0.000000
    34    1275.820    AG       1.087302    0.000000
    35    1303.044    B3U      1.473688    0.000170
    36    1366.949    B1G      1.675087    0.000000
    37    1398.383    B2U      1.739418    0.189698
    38    1427.671    AG      10.180790    0.000000
    39    1497.311    B3U      2.657646    0.117915
    40    1538.304    B2U      1.570968    0.139929
    41    1611.288    B1G      2.253770    0.000000
    42    1612.894    AG       1.799542    0.000000
    43    1671.109    B3U      3.033390    0.296499
    44    1745.436    AG       6.160277    0.000000
    45    1808.339    B1G      5.509998    0.000000
    46    1825.485    B2U      5.288928    0.043872
    47    3286.918    B1G      1.087348    0.000000
    48    3289.667    B2U      1.087634    0.059054
    49    3293.508    B3U      1.090267    0.092110
    50    3299.347    AG       1.089918    0.000000
    51    3310.789    B1G      1.095843    0.000000
    52    3314.374    B2U      1.096518    2.079166
    53    3327.008    B3U      1.098528    1.703228
    54    3329.106    AG       1.097878    0.000000

     -------------------------------
     THERMOCHEMISTRY AT T=  298.15 K
     -------------------------------

 USING IDEAL GAS, RIGID ROTOR, HARMONIC NORMAL MODE APPROXIMATIONS.
 P=  1.01325E+05 PASCAL.
 ALL FREQUENCIES ARE SCALED BY   1.00000
 THE MOMENTS OF INERTIA ARE (IN AMU*BOHR**2)
            569.12687          1438.33091          2007.45778
 THE ROTATIONAL SYMMETRY NUMBER IS  4.0
 THE ROTATIONAL CONSTANTS ARE (IN GHZ)
      3.16817     1.25360     0.89819
      7 -     54 VIBRATIONAL MODES ARE USED IN THERMOCHEMISTRY.
 THE HARMONIC ZERO POINT ENERGY IS (SCALED BY   1.000)
        0.156397 HARTREE/MOLECULE    34325.159528 CM**-1/MOLECULE 
       98.140654 KCAL/MOL              410.620498 KJ/MOL

               Q               LN Q
 ELEC.     1.00000E+00       0.000000
 TRANS.    5.69623E+07      17.857900
 ROT.      1.14720E+05      11.650248
 VIB.      6.16839E+00       1.819437
 TOT.      4.03086E+13      31.327585

              E         H         G         CV        CP        S
           KJ/MOL    KJ/MOL    KJ/MOL   J/MOL-K   J/MOL-K   J/MOL-K
 ELEC.      0.000     0.000     0.000     0.000     0.000     0.000
 TRANS.     3.718     6.197   -44.269    12.472    20.786   169.264
 ROT.       3.718     3.718   -28.880    12.472    12.472   109.337
 VIB.     419.743   419.743   406.110    85.190    85.190    45.725
 TOTAL    427.180   429.659   332.961   110.133   118.448   324.326
 VIB. THERMAL CORRECTION E(T)-E(0) = H(T)-H(0) =      9122.666 J/MOL

              E         H         G         CV        CP        S
         KCAL/MOL  KCAL/MOL  KCAL/MOL CAL/MOL-K CAL/MOL-K CAL/MOL-K
 ELEC.      0.000     0.000     0.000     0.000     0.000     0.000
 TRANS.     0.889     1.481   -10.580     2.981     4.968    40.455
 ROT.       0.889     0.889    -6.903     2.981     2.981    26.132
 VIB.     100.321   100.321    97.063    20.361    20.361    10.929
 TOTAL    102.098   102.691    79.580    26.323    28.310    77.516
 VIB. THERMAL CORRECTION E(T)-E(0) = H(T)-H(0) =      2180.370 CAL/MOL
 ......END OF NORMAL COORDINATE ANALYSIS......
 CPU     0: STEP CPU TIME=     0.02 TOTAL CPU TIME=        410.5 (      6.8 MIN)
 TOTAL WALL CLOCK TIME=        499.4 SECONDS, CPU UTILIZATION IS    82.21%
             15157153  WORDS OF DYNAMIC MEMORY USED
 EXECUTION OF GAMESS TERMINATED NORMALLY 19:57:50 16-JAN-2022    
 DDI: 20745728 bytes (19.8 MB / 2 MWords) used by master data server.

 ----------------------------------------
 CPU timing information for all processes
 ========================================
 0: 400.132 + 10.434 = 410.567
 1: 242.192 + 6.910 = 249.102
 2: 244.865 + 8.896 = 253.762
 3: 242.631 + 7.569 = 250.200
 4: 245.836 + 10.433 = 256.269
 5: 242.746 + 7.852 = 250.599
 6: 242.691 + 9.56 = 251.748
 7: 235.842 + 8.169 = 244.11
 8: 246.830 + 11.949 = 258.779
 9: 238.614 + 8.207 = 246.822
 10: 245.427 + 10.672 = 256.99
 11: 231.803 + 8.330 = 240.134
 12: 248.223 + 11.651 = 259.874
 13: 232.718 + 8.216 = 240.935
 14: 242.299 + 10.586 = 252.885
 15: 224.647 + 7.277 = 231.924
 16: 245.332 + 10.261 = 255.594
 17: 235.716 + 5.751 = 241.468
 18: 239.180 + 7.977 = 247.157
 19: 232.621 + 6.94 = 238.716
 20: 243.652 + 9.624 = 253.277
 21: 227.894 + 6.448 = 234.342
 22: 237.711 + 8.597 = 246.309
 23: 223.191 + 6.362 = 229.554
 24: 245.526 + 11.592 = 257.118
 25: 230.53 + 6.794 = 236.847
 26: 234.879 + 8.523 = 243.403
 27: 224.417 + 6.17 = 230.434
 28: 240.233 + 10.563 = 250.796
 29: 217.68 + 6.112 = 223.180
 30: 225.754 + 9.359 = 235.113
 31: 215.90 + 5.730 = 220.820
 ----------------------------------------
 ddikick.x: exited gracefully.
----- accounting info -----
Files used on the master node logoc were:
-rw-r--r-- 1 root root  1217548 янв 16 19:49 /media/arthur/temp/naphthalene_mc_1SAg_hess.F05
-rw-r--r-- 1 root root   301408 янв 16 19:57 /media/arthur/temp/naphthalene_mc_1SAg_hess.F09
-rw-r--r-- 1 root root 13873280 янв 16 19:57 /media/arthur/temp/naphthalene_mc_1SAg_hess.F10
-rw-r--r-- 1 root root      256 янв 16 19:49 /media/arthur/temp/naphthalene_mc_1SAg_hess.F12
-rw-r--r-- 1 root root   245352 янв 16 19:49 /media/arthur/temp/naphthalene_mc_1SAg_hess.F15
-rw-r--r-- 1 root root        0 янв 16 19:49 /media/arthur/temp/naphthalene_mc_1SAg_hess.F16
-rw-r--r-- 1 root root 32433264 янв 16 19:51 /media/arthur/temp/naphthalene_mc_1SAg_hess.F18
-rw-r--r-- 1 root root     2160 янв 16 19:51 /media/arthur/temp/naphthalene_mc_1SAg_hess.F19
-rw-r--r-- 1 root root     2160 янв 16 19:51 /media/arthur/temp/naphthalene_mc_1SAg_hess.F19.001
-rw-r--r-- 1 root root     2160 янв 16 19:51 /media/arthur/temp/naphthalene_mc_1SAg_hess.F19.002
-rw-r--r-- 1 root root     2160 янв 16 19:51 /media/arthur/temp/naphthalene_mc_1SAg_hess.F19.003
-rw-r--r-- 1 root root     2160 янв 16 19:51 /media/arthur/temp/naphthalene_mc_1SAg_hess.F19.004
-rw-r--r-- 1 root root     2160 янв 16 19:51 /media/arthur/temp/naphthalene_mc_1SAg_hess.F19.005
-rw-r--r-- 1 root root     2160 янв 16 19:51 /media/arthur/temp/naphthalene_mc_1SAg_hess.F19.006
-rw-r--r-- 1 root root     2160 янв 16 19:51 /media/arthur/temp/naphthalene_mc_1SAg_hess.F19.007
-rw-r--r-- 1 root root     2160 янв 16 19:51 /media/arthur/temp/naphthalene_mc_1SAg_hess.F19.008
-rw-r--r-- 1 root root     2160 янв 16 19:51 /media/arthur/temp/naphthalene_mc_1SAg_hess.F19.009
-rw-r--r-- 1 root root     2160 янв 16 19:51 /media/arthur/temp/naphthalene_mc_1SAg_hess.F19.010
-rw-r--r-- 1 root root     2160 янв 16 19:51 /media/arthur/temp/naphthalene_mc_1SAg_hess.F19.011
-rw-r--r-- 1 root root     2160 янв 16 19:51 /media/arthur/temp/naphthalene_mc_1SAg_hess.F19.012
-rw-r--r-- 1 root root     2160 янв 16 19:51 /media/arthur/temp/naphthalene_mc_1SAg_hess.F19.013
-rw-r--r-- 1 root root     2160 янв 16 19:51 /media/arthur/temp/naphthalene_mc_1SAg_hess.F19.014
-rw-r--r-- 1 root root     2160 янв 16 19:51 /media/arthur/temp/naphthalene_mc_1SAg_hess.F19.015
-rw-r--r-- 1 root root     2160 янв 16 19:51 /media/arthur/temp/naphthalene_mc_1SAg_hess.F19.016
-rw-r--r-- 1 root root     2160 янв 16 19:51 /media/arthur/temp/naphthalene_mc_1SAg_hess.F19.017
-rw-r--r-- 1 root root     2160 янв 16 19:51 /media/arthur/temp/naphthalene_mc_1SAg_hess.F19.018
-rw-r--r-- 1 root root     2160 янв 16 19:51 /media/arthur/temp/naphthalene_mc_1SAg_hess.F19.019
-rw-r--r-- 1 root root     2160 янв 16 19:51 /media/arthur/temp/naphthalene_mc_1SAg_hess.F19.020
-rw-r--r-- 1 root root     2160 янв 16 19:51 /media/arthur/temp/naphthalene_mc_1SAg_hess.F19.021
-rw-r--r-- 1 root root     2160 янв 16 19:51 /media/arthur/temp/naphthalene_mc_1SAg_hess.F19.022
-rw-r--r-- 1 root root     2160 янв 16 19:51 /media/arthur/temp/naphthalene_mc_1SAg_hess.F19.023
-rw-r--r-- 1 root root     2160 янв 16 19:51 /media/arthur/temp/naphthalene_mc_1SAg_hess.F19.024
-rw-r--r-- 1 root root     2160 янв 16 19:51 /media/arthur/temp/naphthalene_mc_1SAg_hess.F19.025
-rw-r--r-- 1 root root     2160 янв 16 19:51 /media/arthur/temp/naphthalene_mc_1SAg_hess.F19.026
-rw-r--r-- 1 root root     2160 янв 16 19:51 /media/arthur/temp/naphthalene_mc_1SAg_hess.F19.027
-rw-r--r-- 1 root root     2160 янв 16 19:51 /media/arthur/temp/naphthalene_mc_1SAg_hess.F19.028
-rw-r--r-- 1 root root     2160 янв 16 19:51 /media/arthur/temp/naphthalene_mc_1SAg_hess.F19.029
-rw-r--r-- 1 root root     2160 янв 16 19:51 /media/arthur/temp/naphthalene_mc_1SAg_hess.F19.030
-rw-r--r-- 1 root root     2160 янв 16 19:51 /media/arthur/temp/naphthalene_mc_1SAg_hess.F19.031
Вс янв 16 19:57:53 MSK 2022
0.1u 0.0s 8:22.62 0.0% 0+0k 0+2384io 0pf+0w
