----- GAMESS execution script 'rungms' -----
This job is running on host logoc
under operating system Linux at Ср сен 29 11:05:50 MSK 2021
Available scratch disk space (Kbyte units) at beginning of the job is
Файл.система   1K-блоков Использовано  Доступно Использовано% Cмонтировано в
/dev/nvme0n1   491208944     41878212 424308968            9% /media/arthur/temp
GAMESS temporary binary files will be written to /media/arthur/temp
GAMESS supplementary output files will be written to /usr/local/gamess/output
Copying input file ./naphthalene_opt1SB3u_nacme.inp to your run's scratch directory...
 
Assuming a single but multicore node.
 

 Distributed Data Interface kickoff program.
 Initiating 32 compute processes on 1 nodes to run the following command:
 /usr/local/gamess/gamess.01.x naphthalene_opt1SB3u_nacme 

          *******************************************************
          *                                                     *
          *          GAMESS VERSION = 30 SEP 2020 (R2)          *
          *                                                     *
          *              doi.org/10.1063/5.0005188              *
          *                                                     *
          **************** 64 BIT LINUX VERSION *****************

  GAMESS HAS BEEN MADE POSSIBLE WITH IMPORTANT CONTRIBUTIONS FROM
  THE FOLLOWING INDIVIDUALS (IN ALPHABETICAL ORDER):

     IVANA ADAMOVIC, CHRISTINE AIKENS, TOMOKO AKAMA,
     YURI ALEXEEV, YURIKO AOKI, POOJA ARORA, TOSHIO ASADA,
     ANDREY ASADCHEV, KIM K. BALDRIDGE, PRADIPTA BANDYOPADHYAY,
     MARIA BARYSZ, ROB BELL, JONATHAN BENTZ, COLLEEN BERTONI,
     JERRY A. BOATZ, BRETT BODE, KURT BRORSEN, KURT R. BRORSEN,
     LAIMUTIS BYTAUTAS, CALEB CARLIN, LAURA CARRINGTON,
     GALINA CHABAN, BENOIT CHAMPAGNE, WEI CHEN, MAHITO CHIBA,
     DAN CHIPMAN, CHEOL HO CHOI, TANNER CULPITT,
     DIPAYAN DATTA, PAUL DAY, ALBERT DEFUSCO,
     NUWAN DESILVA, J. EMILIANO DEUSTUA,
     TIM DUDLEY, MICHEL DUPUIS, STEVEN T. ELBERT,
     DMITRI FEDOROV, ALEX FINDLATER, GRAHAM FLETCHER,
     MARK FREITAG, CHRISTIAN FRIEDL, DAVID GARMER,
     IGOR S. GERASIMOV, KURT GLAESEMANN, MARK S. GORDON,
     JEFFREY GOUR, FENG LONG GU, EMILIE B. GUIDEZ,
     ANASTASIA GUNINA, SHARON HAMMES-SCHIFFER, MASATAKE HARUTA,
     KIMIHIKO HIRAO, YASUHIRO IKABATA, TZVETELIN IORDANOV,
     STEPHAN IRLE, KAZUYA ISHIMURA, JOE IVANIC, FRANK JENSEN,
     JAN H. JENSEN, VISVALDAS KAIRYS, MUNEAKI KAMIYA,
     MICHIO KATOUDA, NAOAKI KAWAKAMI, DAN KEMP, BERNARD KIRTMAN,
     KAZUO KITAURA, MARIUSZ KLOBUKOWSKI, MASATO KOBAYASHI,
     PRAKASHAN KORAMBATH, JACEK KORCHOWIEC, SHIRO KOSEKI,
     KAROL KOWALSKI, JIMMY KROMANN, STANISLAW KUCHARSKI,
     HENRY KURTZ, SAROM SOK LEANG, HUI LI, SHUHUA LI, WEI LI,
     JESSE LUTZ, ALEKSANDR O. LYKHIN, MARCIN MAKOWSKI,
     JOANI MATO, NIKITA MATSUNAGA, BENEDETTA MENNUCCI,
     GRANT MERRILL, NORIYUKI MINEZAWA, VLADIMIR MIRONOV,
     EISAKU MIYOSHI, JOHN A. MONTGOMERY JR., HIROTOSHI MORI,
     JONATHAN MULLIN, MONIKA MUSIAL, SHIGERU NAGASE,
     TAKESHI NAGATA, HIROMI NAKAI, TAKAHITO NAKAJIMA,
     YUYA NAKAJIMA, HARUYUKI NAKANO, HIROYA NAKATA, SEAN NEDD,
     HEATHER NETZLOFF, KIET A. NGUYEN, YOSHIO NISHIMOTO,
     BOSILJKA NJEGIC, RYAN OLSON, MIKE PAK, ROBERTO PEVERATI,
     BUU PHAM, PIOTR PIECUCH, ANNA POMOGAEVA, DAVID POOLE,
     SPENCER PRUITT, OLIVIER QUINET, LUKE ROSKOP,
     KLAUS RUEDENBERG, ANDREW SAND, TOSAPORN SATTASATHUCHANA,
     NOZOMI SAWADA, MICHAEL W. SCHMIDT, PATRICK E. SCHNEIDER,
     JUNJI SEINO, PRACHI SHARMA, JUN SHEN, JIM SHOEMAKER,
     YINAN SHU, DEJUN SI, JONATHAN SKONE, LYUDMILA SLIPCHENKO,
     TONY SMITH, JIE SONG, MARK SPACKMAN, CASPER STEINMANN,
     WALT STEVENS, PEIFENG SU, SHUJUN SU, CHET SWALINA,
     TETSUYA TAKETSUGU, ZHEN TAO, NANDUN THELLAMUREGE
     SEIKEN TOKURA, JACOPO TOMASI, TSUGUKI TOUMA, TAKAO TSUNEDA,
     HIROAKI UMEDA, JORGE LUIS GALVEZ VALLEJO, YALI WANG,
     SIMON WEBB, AARON WEST, THERESA L. WINDUS, MARTA WLOCH,
     PENG XU, KIYOSHI YAGI, SUSUMU YANAGISAWA, YANG YANG,
     SOOHAENG YOO, TAKESHI YOSHIKAWA, FEDERICO ZAHARIEV,
     TOBY ZENG

  WHO ARE SUPPORTED BY THEIR INSTITUTION/UNIVERSITY/COMPANY/GROUP
  (IN ALPHABETICAL ORDER):

     EP ANALYTICS, FACULTES UNIVERSITAIRES NOTRE-DAME DE LA PAIX,
     INSTITUTE FOR MOLECULAR SCIENCE, IOWA STATE UNIVERSITY,
     JACKSON STATE UNIVERSITY, JOHANNES KEPLER UNIVERSITY LINZ,
     KYUSHU UNIVERSITY, MICHIGAN STATE UNIVERSITY,
     MIE UNIVERSITY, MOSCOW STATE UNIVERSITY,
     N. COPERNICUS UNIVERSITY, NAGOYA UNIVERSITY,
     NANJING UNIVERSITY, NAT. INST. OF ADVANCED INDUSTRIAL
     SCIENCE AND TECHNOLOGY, NATIONAL INST. OF STANDARDS AND
     TECHNOLOGY, NESMEYANOV INSTITUTE OF ORGANOELEMENT COMPOUNDS
     OF RUSSIAN ACADEMY OF SCIENCES, OSAKA PREFECTURE UNIVERSITY,
     PENNSYLVANIA STATE UNIVERSITY, TOKYO INSTITUTE OF TECHNOLOGY,
     UNIVERSITY OF AARHUS, UNIVERSITY OF ALBERTA,
     UNIVERSITY OF CALIFORNIA AT SANTA BARBARA,
     UNIVERSITY OF COPENHAGEN, UNIVERSITY OF IOWA,
     UNIVERSITY OF MEMPHIS, UNIVERSITY OF MINNESOTA,
     UNIVERSITY OF NEBRASKA, UNIVERSITY OF NEW ENGLAND,
     UNIVERSITY OF NOTRE DAME, UNIVERSITY OF PISA,
     UNIVERSITY OF SILESIA, UNIVERSITY OF TOKYO,
     UNIVERSITY OF ZURICH, WASEDA UNIVERSITY, YALE UNIVERSITY

  GAMESS SOFTWARE MANAGEMENT TEAM FOR THIS RELEASE:
     MARK S. GORDON (TEAM LEAD),
     BRETT BODE (SENIOR ADVISOR),
     GIUSEPPE BARCA,
     COLLEEN BERTONI,
     KRISTOPHER KEIPERT (ADVISOR),
     SAROM S. LEANG (DEVELOPMENT LEAD),
     BUU PHAM,
     JORGE LUIS GALVEZ VALLEJO (WEBSITE ADMINISTRATOR),
     PENG XU


 PARALLEL VERSION RUNNING ON       32 PROCESSORS IN        1 NODES.

 EXECUTION OF GAMESS BEGUN 11:05:51 29-SEP-2021    

            ECHO OF THE FIRST FEW INPUT CARDS -
 INPUT CARD> $CONTRL SCFTYP=MCSCF RUNTYP=nacme                                              
 INPUT CARD> MAXIT=70 MULT=1 EXETYP=run $END                                                
 INPUT CARD> $SYSTEM mwords=200 memddi=500 $END                                             
 INPUT CARD> $BASIS GBASIS=N311 NGAUSS=6 NDFUNC=2 NDFUNC=2 $END                             
 INPUT CARD> $GUESS  GUESS=moread norb=274 $end                                             
 INPUT CARD> $mcscf cistep=aldet soscf=.f. fullnr=.t. maxit=150 $end                        
 INPUT CARD> $DET GROUP=C1 NCORE=31 NELS=6 NACT=5                                           
 INPUT CARD> NSTATE=6 wstate(1)=1.,1. $END                                                  
 INPUT CARD> $FORCE METHOD=SEMINUM $END                                                     
 INPUT CARD> $cpmchf gcrodr=.t. micit=20 kicit=10 reclin=.false.                            
 INPUT CARD>         prcchg=.true. prctol=1.0 $end	                                         
 INPUT CARD> $DATA                                                                          
 INPUT CARD>naphthalene                                                                     
 INPUT CARD>Dnh 2                                                                           
 INPUT CARD>                                                                                
 INPUT CARD> C           6.0  -0.0000000000   0.7488795087   0.0000000000                   
 INPUT CARD> C           6.0  -1.2416199275   1.4052723575   0.0000000000                   
 INPUT CARD> C           6.0  -2.4327850388   0.7018223703  -0.0000000000                   
 INPUT CARD> H           1.0  -1.2593016248   2.4800693267   0.0000000000                   
 INPUT CARD> H           1.0  -3.3641415250   1.2344134822  -0.0000000000                   
 INPUT CARD> $end                                                                           
 INPUT CARD>--- OPTIMIZED MCSCF MO-S --- GENERATED AT 17:03:51 18-AUG-2021                  
 INPUT CARD>naphthalene                                                                     
 INPUT CARD>E(MCSCF)=     -383.2539715691, E(NUC)=      457.4077490588                      
 INPUT CARD> $VEC                                                                           
 INPUT CARD> 1  1 3.62283502E-01 2.99344123E-01 0.00000000E+00 1.80900597E-04 0.00000000E+00
 INPUT CARD> 1  2 4.38822754E-03 0.00000000E+00 5.68388716E-05 0.00000000E+00 1.78420733E-03
 INPUT CARD> 1  3 0.00000000E+00-2.83872458E-05 0.00000000E+00-4.27685172E-04-4.60678954E-04
 INPUT CARD> 1  4-9.05744473E-04 0.00000000E+00 0.00000000E+00 0.00000000E+00-9.64933121E-04
 INPUT CARD> 1  5-9.86272508E-04-6.51210205E-04 0.00000000E+00 0.00000000E+00 0.00000000E+00
 INPUT CARD> 1  6 3.62283502E-01 2.99344123E-01 0.00000000E+00-1.80900597E-04 0.00000000E+00
 INPUT CARD> 1  7 4.38822754E-03 0.00000000E+00-5.68388716E-05 0.00000000E+00 1.78420733E-03
 INPUT CARD> 1  8 0.00000000E+00 2.83872458E-05 0.00000000E+00-4.27685172E-04-4.60678954E-04
 INPUT CARD> 1  9-9.05744473E-04 0.00000000E+00 0.00000000E+00 0.00000000E+00-9.64933121E-04
 INPUT CARD> 1 10-9.86272508E-04-6.51210205E-04 0.00000000E+00 0.00000000E+00 0.00000000E+00
 INPUT CARD> 1 11 1.16923126E-01 9.66342467E-02-1.18855402E-04 3.17109786E-05 0.00000000E+00
 INPUT CARD> 1 12 1.57839905E-03-1.52325761E-04 1.39964023E-04 0.00000000E+00 2.36834749E-04
 INPUT CARD> 1 13 1.19528707E-04-1.05275841E-04 0.00000000E+00-4.25293642E-05-1.58775606E-04
 INPUT CARD> 1 14-2.60485393E-04-5.33504530E-05 0.00000000E+00 0.00000000E+00-2.33467388E-04
 INPUT CARD> 1 15-1.93948185E-05-1.48527719E-04 1.17656894E-04 0.00000000E+00 0.00000000E+00
 INPUT CARD> 1 16 1.16923126E-01 9.66342467E-02 1.18855402E-04 3.17109786E-05 0.00000000E+00
 INPUT CARD> 1 17 1.57839905E-03 1.52325761E-04 1.39964023E-04 0.00000000E+00 2.36834749E-04
 INPUT CARD> 1 18-1.19528707E-04-1.05275841E-04 0.00000000E+00-4.25293642E-05-1.58775606E-04
 INPUT CARD> 1 19-2.60485393E-04 5.33504530E-05 0.00000000E+00 0.00000000E+00-2.33467388E-04
 INPUT CARD> 1 20-1.93948185E-05-1.48527719E-04-1.17656894E-04 0.00000000E+00 0.00000000E+00
 INPUT CARD> 1 21 1.16923126E-01 9.66342467E-02-1.18855402E-04-3.17109786E-05 0.00000000E+00
 INPUT CARD> 1 22 1.57839905E-03-1.52325761E-04-1.39964023E-04 0.00000000E+00 2.36834749E-04
 INPUT CARD> 1 23 1.19528707E-04 1.05275841E-04 0.00000000E+00-4.25293642E-05-1.58775606E-04
 INPUT CARD> 1 24-2.60485393E-04 5.33504530E-05 0.00000000E+00 0.00000000E+00-2.33467388E-04
 INPUT CARD> 1 25-1.93948185E-05-1.48527719E-04-1.17656894E-04 0.00000000E+00 0.00000000E+00
  200000000 WORDS OF MEMORY AVAILABLE

     BASIS OPTIONS
     -------------
     GBASIS=N311         IGAUSS=       6      POLAR=POPN311 
     NDFUNC=       2     NFFUNC=       0     DIFFSP=       F
     NPFUNC=       0      DIFFS=       F     BASNAM=        
     SPLIT2=     2.00000000     0.50000000


     RUN TITLE
     ---------
 naphthalene                                                                     

 THE POINT GROUP OF THE MOLECULE IS DNH     
 THE ORDER OF THE PRINCIPAL AXIS IS     2

 ATOM      ATOMIC                      COORDINATES (BOHR)
           CHARGE         X                   Y                   Z
 C           6.0    -0.0000000000       -1.4151770693        0.0000000000
 C           6.0    -0.0000000000        1.4151770693        0.0000000000
 C           6.0     2.3463214439       -2.6555796938        0.0000000000
 C           6.0    -2.3463214439       -2.6555796938        0.0000000000
 C           6.0     2.3463214439        2.6555796938        0.0000000000
 C           6.0    -2.3463214439        2.6555796938        0.0000000000
 C           6.0     4.5972971104       -1.3262519719        0.0000000000
 C           6.0    -4.5972971104       -1.3262519719        0.0000000000
 C           6.0     4.5972971104        1.3262519719        0.0000000000
 C           6.0    -4.5972971104        1.3262519719       -0.0000000000
 H           1.0     2.3797350068       -4.6866514580        0.0000000000
 H           1.0    -2.3797350068       -4.6866514580        0.0000000000
 H           1.0     2.3797350068        4.6866514580        0.0000000000
 H           1.0    -2.3797350068        4.6866514580        0.0000000000
 H           1.0     6.3573056662       -2.3327032369        0.0000000000
 H           1.0    -6.3573056662       -2.3327032369        0.0000000000
 H           1.0     6.3573056662        2.3327032369        0.0000000000
 H           1.0    -6.3573056662        2.3327032369       -0.0000000000

          INTERNUCLEAR DISTANCES (ANGS.)
          ------------------------------

                1 C          2 C          3 C          4 C          5 C     

   1 C       0.0000000    1.4977590 *  1.4044471 *  1.4044471 *  2.4863609 *
   2 C       1.4977590 *  0.0000000    2.4863609 *  2.4863609 *  1.4044471 *
   3 C       1.4044471 *  2.4863609 *  0.0000000    2.4832399 *  2.8105447 *
   4 C       1.4044471 *  2.4863609 *  2.4832399 *  0.0000000    3.7504189  
   5 C       2.4863609 *  1.4044471 *  2.8105447 *  3.7504189    0.0000000  
   6 C       2.4863609 *  1.4044471 *  3.7504189    2.8105447 *  2.4832399 *
   7 C       2.4332401 *  2.8324864 *  1.3833713 *  3.7411354    2.4204798 *
   8 C       2.4332401 *  2.8324864 *  3.7411354    1.3833713 *  4.2356936  
   9 C       2.8324864 *  2.4332401 *  2.4204798 *  4.2356936    1.3833713 *
  10 C       2.8324864 *  2.4332401 *  4.2356936    2.4204798 *  3.7411354  
  11 H       2.1407613 *  3.4658262    1.0749424 *  2.7220943 *  3.8853819  
  12 H       2.1407613 *  3.4658262    2.7220943 *  1.0749424 *  4.6206589  
  13 H       3.4658262    2.1407613 *  3.8853819    4.6206589    1.0749424 *
  14 H       3.4658262    2.1407613 *  4.6206589    3.8853819    2.7220943 *
  15 H       3.3989986    3.9052400    2.1293874 *  4.6089295    3.3871875  
  16 H       3.3989986    3.9052400    4.6089295    2.1293874 *  5.3085761  
  17 H       3.9052400    3.3989986    3.3871875    5.3085761    2.1293874 *
  18 H       3.9052400    3.3989986    5.3085761    3.3871875    4.6089295  

                6 C          7 C          8 C          9 C         10 C     

   1 C       2.4863609 *  2.4332401 *  2.4332401 *  2.8324864 *  2.8324864 *
   2 C       1.4044471 *  2.8324864 *  2.8324864 *  2.4332401 *  2.4332401 *
   3 C       3.7504189    1.3833713 *  3.7411354    2.4204798 *  4.2356936  
   4 C       2.8105447 *  3.7411354    1.3833713 *  4.2356936    2.4204798 *
   5 C       2.4832399 *  2.4204798 *  4.2356936    1.3833713 *  3.7411354  
   6 C       0.0000000    4.2356936    2.4204798 *  3.7411354    1.3833713 *
   7 C       4.2356936    0.0000000    4.8655701    1.4036447 *  5.0639896  
   8 C       2.4204798 *  4.8655701    0.0000000    5.0639896    1.4036447 *
   9 C       3.7411354    1.4036447 *  5.0639896    0.0000000    4.8655701  
  10 C       1.3833713 *  5.0639896    1.4036447 *  4.8655701    0.0000000  
  11 H       4.6206589    2.1305458 *  4.0980076    3.3913859    4.8740064  
  12 H       3.8853819    4.0980076    2.1305458 *  4.8740064    3.3913859  
  13 H       2.7220943 *  3.3913859    4.8740064    2.1305458 *  4.0980076  
  14 H       1.0749424 *  4.8740064    3.3913859    4.0980076    2.1305458 *
  15 H       5.3085761    1.0728831 *  5.8213410    2.1485889 *  6.1117401  
  16 H       3.3871875    5.8213410    1.0728831 *  6.1117401    2.1485889 *
  17 H       4.6089295    2.1485889 *  6.1117401    1.0728831 *  5.8213410  
  18 H       2.1293874 *  6.1117401    2.1485889 *  5.8213410    1.0728831 *

               11 H         12 H         13 H         14 H         15 H     

   1 C       2.1407613 *  2.1407613 *  3.4658262    3.4658262    3.3989986  
   2 C       3.4658262    3.4658262    2.1407613 *  2.1407613 *  3.9052400  
   3 C       1.0749424 *  2.7220943 *  3.8853819    4.6206589    2.1293874 *
   4 C       2.7220943 *  1.0749424 *  4.6206589    3.8853819    4.6089295  
   5 C       3.8853819    4.6206589    1.0749424 *  2.7220943 *  3.3871875  
   6 C       4.6206589    3.8853819    2.7220943 *  1.0749424 *  5.3085761  
   7 C       2.1305458 *  4.0980076    3.3913859    4.8740064    1.0728831 *
   8 C       4.0980076    2.1305458 *  4.8740064    3.3913859    5.8213410  
   9 C       3.3913859    4.8740064    2.1305458 *  4.0980076    2.1485889 *
  10 C       4.8740064    3.3913859    4.0980076    2.1305458 *  6.1117401  
  11 H       0.0000000    2.5186032 *  4.9601387    5.5629433    2.4458147 *
  12 H       2.5186032 *  0.0000000    5.5629433    4.9601387    4.7883071  
  13 H       4.9601387    5.5629433    0.0000000    2.5186032 *  4.2693950  
  14 H       5.5629433    4.9601387    2.5186032 *  0.0000000    5.9307343  
  15 H       2.4458147 *  4.7883071    4.2693950    5.9307343    0.0000000  
  16 H       4.7883071    2.4458147 *  5.9307343    4.2693950    6.7282831  
  17 H       4.2693950    5.9307343    2.4458147 *  4.7883071    2.4688270 *
  18 H       5.9307343    4.2693950    4.7883071    2.4458147 *  7.1669310  

               16 H         17 H         18 H     

   1 C       3.3989986    3.9052400    3.9052400  
   2 C       3.9052400    3.3989986    3.3989986  
   3 C       4.6089295    3.3871875    5.3085761  
   4 C       2.1293874 *  5.3085761    3.3871875  
   5 C       5.3085761    2.1293874 *  4.6089295  
   6 C       3.3871875    4.6089295    2.1293874 *
   7 C       5.8213410    2.1485889 *  6.1117401  
   8 C       1.0728831 *  6.1117401    2.1485889 *
   9 C       6.1117401    1.0728831 *  5.8213410  
  10 C       2.1485889 *  5.8213410    1.0728831 *
  11 H       4.7883071    4.2693950    5.9307343  
  12 H       2.4458147 *  5.9307343    4.2693950  
  13 H       5.9307343    2.4458147 *  4.7883071  
  14 H       4.2693950    4.7883071    2.4458147 *
  15 H       6.7282831    2.4688270 *  7.1669310  
  16 H       0.0000000    7.1669310    2.4688270 *
  17 H       7.1669310    0.0000000    6.7282831  
  18 H       2.4688270 *  6.7282831    0.0000000  

  * ... LESS THAN  3.000


     ATOMIC BASIS SET
     ----------------
 THE CONTRACTED PRIMITIVE FUNCTIONS HAVE BEEN UNNORMALIZED
 THE CONTRACTED BASIS FUNCTIONS ARE NOW NORMALIZED TO UNITY

  SHELL TYPE  PRIMITIVE        EXPONENT          CONTRACTION COEFFICIENT(S)

 C         

      7   S       1          4563.2400000    0.001966650249
      7   S       2           682.0240000    0.015230601932
      7   S       3           154.9730000    0.076126909656
      7   S       4            44.4553000    0.260801033080
      7   S       5            13.0290000    0.616462078191
      7   S       6             1.8277300    0.221006028032

      8   L       7            20.9642000    0.114660080729    0.040248692673
      8   L       8             4.8033100    0.919999647749    0.237593956746
      8   L       9             1.4593300   -0.003030682134    0.815853851473

      9   L      10             0.4834560    1.000000000000    1.000000000000

     10   L      11             0.1455850    1.000000000000    1.000000000000

     11   D      12             1.2520000    1.000000000000

     12   D      13             0.3130000    1.000000000000

 C         

     31   S      14          4563.2400000    0.001966650249
     31   S      15           682.0240000    0.015230601932
     31   S      16           154.9730000    0.076126909656
     31   S      17            44.4553000    0.260801033080
     31   S      18            13.0290000    0.616462078191
     31   S      19             1.8277300    0.221006028032

     32   L      20            20.9642000    0.114660080729    0.040248692673
     32   L      21             4.8033100    0.919999647749    0.237593956746
     32   L      22             1.4593300   -0.003030682134    0.815853851473

     33   L      23             0.4834560    1.000000000000    1.000000000000

     34   L      24             0.1455850    1.000000000000    1.000000000000

     35   D      25             1.2520000    1.000000000000

     36   D      26             0.3130000    1.000000000000

 C         

     55   S      27          4563.2400000    0.001966650249
     55   S      28           682.0240000    0.015230601932
     55   S      29           154.9730000    0.076126909656
     55   S      30            44.4553000    0.260801033080
     55   S      31            13.0290000    0.616462078191
     55   S      32             1.8277300    0.221006028032

     56   L      33            20.9642000    0.114660080729    0.040248692673
     56   L      34             4.8033100    0.919999647749    0.237593956746
     56   L      35             1.4593300   -0.003030682134    0.815853851473

     57   L      36             0.4834560    1.000000000000    1.000000000000

     58   L      37             0.1455850    1.000000000000    1.000000000000

     59   D      38             1.2520000    1.000000000000

     60   D      39             0.3130000    1.000000000000

 H         

     70   S      40            33.8650000    0.025493814541
     70   S      41             5.0947900    0.190373108582
     70   S      42             1.1587900    0.852161486043

     71   S      43             0.3258400    1.000000000000

     72   S      44             0.1027410    1.000000000000

 H         

     82   S      45            33.8650000    0.025493814541
     82   S      46             5.0947900    0.190373108582
     82   S      47             1.1587900    0.852161486043

     83   S      48             0.3258400    1.000000000000

     84   S      49             0.1027410    1.000000000000

 TOTAL NUMBER OF BASIS SET SHELLS             =   84
 NUMBER OF CARTESIAN GAUSSIAN BASIS FUNCTIONS =  274
 NUMBER OF ELECTRONS                          =   68
 CHARGE OF MOLECULE                           =    0
 SPIN MULTIPLICITY                            =    1
 NUMBER OF OCCUPIED ORBITALS (ALPHA)          =   34
 NUMBER OF OCCUPIED ORBITALS (BETA )          =   34
 TOTAL NUMBER OF ATOMS                        =   18
 THE NUCLEAR REPULSION ENERGY IS      457.4077490560

     $CONTRL OPTIONS
     ---------------
 SCFTYP=MCSCF        RUNTYP=NACME        EXETYP=RUN     
 MPLEVL=       0     CITYP =NONE         CCTYP =NONE         VBTYP =NONE    
 DFTTYP=NONE         TDDFT =NONE    
 MULT  =       1     ICHARG=       0     NZVAR =       0     COORD =UNIQUE  
 PP    =NONE         RELWFN=NONE         LOCAL =NONE         NUMGRD=       F
 ISPHER=      -1     NOSYM =       0     MAXIT =      70     UNITS =ANGS    
 PLTORB=       F     MOLPLT=       F     AIMPAC=       F     FRIEND=        
 NPRINT=       7     IREST =       0     GEOM  =INPUT   
 NORMF =       0     NORMP =       0     ITOL  =      20     ICUT  =       9
 INTTYP=BEST         GRDTYP=BEST         QMTTOL= 1.0E-06

     $SYSTEM OPTIONS
     ---------------
  REPLICATED MEMORY=   200000000 WORDS (ON EVERY NODE).
 DISTRIBUTED MEMDDI=         500 MILLION WORDS IN AGGREGATE,
 MEMDDI DISTRIBUTED OVER  32 PROCESSORS IS    15625000 WORDS/PROCESSOR.
 TOTAL MEMORY REQUESTED ON EACH PROCESSOR=   215625000 WORDS.
 TIMLIM=      525600.00 MINUTES, OR     365.0 DAYS.
 PARALL= T  BALTYP=  DLB     KDIAG=    0  COREFL= F
 MXSEQ2=     300 MXSEQ3=     150  mem10=         0  mem22=         0

 Using Gaussians for PCM contribution to MEP, params: 0.10000E+01 0.10000E-07

          ----------------
          PROPERTIES INPUT
          ----------------

     MOMENTS            FIELD           POTENTIAL          DENSITY
 IEMOM =       1   IEFLD =       0   IEPOT =       0   IEDEN =       0
 WHERE =COMASS     WHERE =NUCLEI     WHERE =NUCLEI     WHERE =NUCLEI  
 OUTPUT=BOTH       OUTPUT=BOTH       OUTPUT=BOTH       OUTPUT=BOTH    
 IEMINT=       0   IEFINT=       0                     IEDINT=       0
                                                       MORB  =       0

     -------------------------------
     INTEGRAL TRANSFORMATION OPTIONS
     -------------------------------
     NWORD  =            0
     CUTOFF = 1.0E-09     MPTRAN =       0
     DIRTRF =       F     AOINTS =DUP     
 INTEGRAL TRANSFORMATION OPTION -DIRTRF- FORCED TRUE,
 DUE TO THE CHOICE OF -FULLNR- IN A PARALLEL JOB.

          ----------------------
          MCSCF INPUT PARAMETERS
          ----------------------
 CONVERGER SELECTION: FOCAS = F  SOSCF = F  FULLNR = T  QUD = F  JACOBI = F
 SECULAR EQUATION METHOD CISTEP = ALDET   
 --- GENERAL INPUT OPTIONS:
 MAXIT =     150  MICIT =       1  ACURCY= 1.000E-05
 DAMP  =   0.000  CANONC=       T  ENGTOL= 1.000E-10
 EKT   =       F  NPUNCH=       2  NWORD =         0
 REGENERATE CI AFTER CONVERGENCE = NONE    
 DIABATIZATION AFTER CONVERGENCE =        F
 --- INPUT FOR FULLNR CONVERGER:
 METHOD=DM2       FORS  =       F  DROPC =       T
 LINSER=       F  FCORE =       F  NORB  =     274

          ----------------------
          INTEGRAL INPUT OPTIONS
          ----------------------
 NOPK  =       1 NORDER=       0 SCHWRZ=       T

     ------------------------------------------
     THE POINT GROUP IS DNH, NAXIS= 2, ORDER= 8
     ------------------------------------------

     DIMENSIONS OF THE SYMMETRY SUBSPACES ARE
 AG  =   55     AU  =   16     B3U =   47     B3G =   19     B1G =   47
 B1U =   19     B2U =   55     B2G =   16

 ..... DONE SETTING UP THE RUN .....
 CPU     0: STEP CPU TIME=     0.49 TOTAL CPU TIME=          0.5 (      0.0 MIN)
 TOTAL WALL CLOCK TIME=          0.6 SECONDS, CPU UTILIZATION IS    86.75%

     ------------------------------
     CPHF RESPONSE SOLUTION OPTIONS
     ------------------------------
     POLAR  =       F     NWORD  =       0
     CPHF   =MO      

          ********************
          1 ELECTRON INTEGRALS
          ********************
 TIME TO DO   DIPOLE INTEGRALS=      0.02
 ...... END OF ONE-ELECTRON INTEGRALS ......
 CPU     0: STEP CPU TIME=     0.03 TOTAL CPU TIME=          0.5 (      0.0 MIN)
 TOTAL WALL CLOCK TIME=          0.6 SECONDS, CPU UTILIZATION IS    85.90%

          -------------
          GUESS OPTIONS
          -------------
          GUESS =MOREAD            NORB  =     274          NORDER=       0
          MIX   =       F          PRTMO =       F          PUNMO =       F
          TOLZ  = 1.0E-08          TOLE  = 1.0E-05
          SYMDEN=       F          PURIFY=       F

 INITIAL GUESS ORBITALS GENERATED BY MOREAD   ROUTINE.

 SYMMETRIES FOR INITIAL GUESS ORBITALS FOLLOW.   BOTH SET(S).
    34 ORBITALS ARE OCCUPIED (   10 CORE ORBITALS).
     1=A        2=A        3=A        4=A        5=A        6=A        7=A   
     8=A        9=A       10=A       11=A       12=A       13=A       14=A   
    15=A       16=A       17=A       18=A       19=A       20=A       21=A   
    22=A       23=A       24=A       25=A       26=A       27=A       28=A   
    29=A       30=A       31=A       32=A       33=A       34=A       35=A   
    36=A       37=A       38=A       39=A       40=A       41=A       42=A   
    43=A       44=A       45=A       46=A       47=A       48=A       49=A   
    50=A       51=A       52=A       53=A       54=A       55=A       56=A   
    57=A       58=A       59=A       60=A       61=A       62=A       63=A   
    64=A       65=A       66=A       67=A       68=A       69=A       70=A   
    71=A       72=A       73=A       74=A       75=A       76=A       77=A   
    78=A       79=A       80=A       81=A       82=A       83=A       84=A   
    85=A       86=A       87=A       88=A       89=A       90=A       91=A   
    92=A       93=A       94=A       95=A       96=A       97=A       98=A   
    99=A      100=A      101=A      102=A      103=A      104=A      105=A   
   106=A      107=A      108=A      109=A      110=A      111=A      112=A   
   113=A      114=A      115=A      116=A      117=A      118=A      119=A   
   120=A      121=A      122=A      123=A      124=A      125=A      126=A   
   127=A      128=A      129=A      130=A      131=A      132=A      133=A   
   134=A      135=A      136=A      137=A      138=A      139=A      140=A   
   141=A      142=A      143=A      144=A      145=A      146=A      147=A   
   148=A      149=A      150=A      151=A      152=A      153=A      154=A   
   155=A      156=A      157=A      158=A      159=A      160=A      161=A   
   162=A      163=A      164=A      165=A      166=A      167=A      168=A   
   169=A      170=A      171=A      172=A      173=A      174=A      175=A   
   176=A      177=A      178=A      179=A      180=A      181=A      182=A   
   183=A      184=A      185=A      186=A      187=A      188=A      189=A   
   190=A      191=A      192=A      193=A      194=A      195=A      196=A   
   197=A      198=A      199=A      200=A      201=A      202=A      203=A   
   204=A      205=A      206=A      207=A      208=A      209=A      210=A   
   211=A      212=A      213=A      214=A      215=A      216=A      217=A   
   218=A      219=A      220=A      221=A      222=A      223=A      224=A   
   225=A      226=A      227=A      228=A      229=A      230=A      231=A   
   232=A      233=A      234=A      235=A      236=A      237=A      238=A   
   239=A      240=A      241=A      242=A      243=A      244=A      245=A   
   246=A      247=A      248=A      249=A      250=A      251=A      252=A   
   253=A      254=A      255=A      256=A      257=A      258=A      259=A   
   260=A      261=A      262=A      263=A      264=A      265=A      266=A   
   267=A      268=A      269=A      270=A      271=A      272=A      273=A   
   274=A   
 ...... END OF INITIAL ORBITAL SELECTION ......
 CPU     0: STEP CPU TIME=     0.13 TOTAL CPU TIME=          0.6 (      0.0 MIN)
 TOTAL WALL CLOCK TIME=          0.8 SECONDS, CPU UTILIZATION IS    84.21%

                    ----------------------
                    AO INTEGRAL TECHNOLOGY
                    ----------------------
     S,P,L SHELL ROTATED AXIS INTEGRALS, REPROGRAMMED BY
        KAZUYA ISHIMURA (IMS) AND JOSE SIERRA (SYNSTAR).
     S,P,D,L SHELL ROTATED AXIS INTEGRALS PROGRAMMED BY
        KAZUYA ISHIMURA (INSTITUTE FOR MOLECULAR SCIENCE).
     S,P,D,F,G SHELL TO TOTAL QUARTET ANGULAR MOMENTUM SUM 5,
        ERIC PROGRAM BY GRAHAM FLETCHER (ELORET AND NASA ADVANCED
        SUPERCOMPUTING DIVISION, AMES RESEARCH CENTER).
     S,P,D,F,G,L SHELL GENERAL RYS QUADRATURE PROGRAMMED BY
        MICHEL DUPUIS (PACIFIC NORTHWEST NATIONAL LABORATORY).
 DIRECT TRANSFORMATION SKIPS AO INTEGRAL STORAGE ON DISK.
  ...... END OF TWO-ELECTRON INTEGRALS .....
 STEP CPU TIME =     0.01 TOTAL CPU TIME =          0.7 (      0.0 MIN)
 TOTAL WALL CLOCK TIME=          0.8 SECONDS, CPU UTILIZATION IS    84.47%

          -----------------
          MCSCF CALCULATION
          -----------------

 ----- NUCLEAR ENERGY ----- =       457.4077490560

     --------------------------------------------------
          AMES LABORATORY DETERMINANTAL FULL CI
     PROGRAM WRITTEN BY JOE IVANIC AND KLAUS RUEDENBERG
     --------------------------------------------------

 RUNTYP=NACME    INVOLVING AN ANALYTIC NUCLEAR GRADIENT
 HAS BEEN REQUESTED FOR A RUN AVERAGING OVER   2 STATES.
 THIS REQUIRES SOLUTION OF THE MULTI-REFERENCE RESPONSE EQUATIONS,
 REQUIRING MORE COMPUTER TIME THAN SINGLE STATE GRADIENTS.
 PROVIDING $CPMCHF INPUT MAY HELP RESPONSE SOLVING.

 THE POINT GROUP                  =   C1      
 THE STATE SYMMETRY               =   A       
 NUMBER OF CORE ORBITALS          =   31
 NUMBER OF ACTIVE ORBITALS        =    5
 NUMBER OF ALPHA ELECTRONS        =   34 (   3 ACTIVE)
 NUMBER OF BETA ELECTRONS         =   34 (   3 ACTIVE)
 NUMBER OF OCCUPIED ORBITALS      =   36
 NUMBER OF CI STATES REQUESTED    =    6
 NUMBER OF CI STARTING VECTORS    =    6
 MAX. NO. OF CI EXPANSION VECTORS =   12
 SIZE OF INITIAL CI GUESS MATRIX  =  300
 MAX. NO. OF CI ITERS/STATE       =  100
 CI DIAGONALIZATION CRITERION     = 1.00E-06
 PURE SPIN STATE AVERAGED 1E- AND 2E- DENSITY MATRIX OPTION=.T.
 STATE=   1 DM2 WEIGHT=   0.50000     STATE=   2 DM2 WEIGHT=   0.50000
 STATE-AVERAGED MCSCF USING IROOT=  0 AS ITS STATE-SPECIFIC E

 CORRELATION ENERGY ANALYSIS      =    F

 SYMMETRIES FOR THE  31 CORE,   5 ACTIVE ARE

     CORE= A     A     A     A     A     A     A     A     A     A   
           A     A     A     A     A     A     A     A     A     A   
           A     A     A     A     A     A     A     A     A     A   
           A   

   ACTIVE= A     A     A     A     A   

 EVALUATING EXCHANGE INTEGRALS FOR DIRECT INTEGRAL TRANSFORMATION
 SCHWARZ INEQUALITY OVERHEAD:     36297 INTEGRALS, T=        0.00

     --------------------------------------------
     PARTIAL TWO ELECTRON INTEGRAL TRANSFORMATION
     --------------------------------------------

 NUMBER OF CORE MOLECULAR ORBITALS     =   31
 NUMBER OF OCCUPIED MOLECULAR ORBITALS =   36
 TOTAL NUMBER OF MOLECULAR ORBITALS    =  274
 TOTAL NUMBER OF ATOMIC ORBITALS       =  274
 THRESHOLD FOR KEEPING TRANSFORMED 2E- INTEGRALS = 1.000E-09

 -------------------------------     ------------------------------
 DISTRIBUTED DATA TRANSFORMATION     PROGRAM WRITTEN BY G. FLETCHER
 -------------------------------     ------------------------------

 THE DISTRIBUTED MEMORY REQUIRED FOR THIS STEP IS MEMDDI=        82 MWORDS
 CREATING DISTRIBUTED STORAGE FOR [VIR OCC|VIR OCC] INTEGRALS
 DDI: Creating Array [0] - 75076 x 666 = 50000616 words.
 CREATING DISTRIBUTED STORAGE FOR [VIR OCC|OCC OCC] INTEGRALS
 DDI: Creating Array [1] - 238 x 23976 = 5706288 words.
 CREATING DISTRIBUTED STORAGE FOR [OCC OCC|OCC OCC] INTEGRALS
 DDI: Creating Array [2] - 666 x 666 = 443556 words.
 CREATING DISTRIBUTED STORAGE FOR [VIR VIR|OCC OCC] INTEGRALS
 DDI: Creating Array [3] - 37675 x 666 = 25091550 words.
 FOR   32 PROCESSORS, THE REPLICATED MEMORY NEEDED IS     1059754 WORDS.
 SCHWARZ INEQUALITY OVERHEAD:     36297 INTEGRALS, T=        0.00

      DIRECT 4-INDEX TRANSFORMATION 
      SCHWARZ INEQUALITY TEST SKIPPED    4480720 INTEGRAL BLOCKS
 ----- FROZEN CORE ENERGY =      -835.4448002219
 ... END OF INTEGRAL TRANSFORMATION ...
 CPU     0: STEP CPU TIME=     6.37 TOTAL CPU TIME=          7.0 (      0.1 MIN)
 TOTAL WALL CLOCK TIME=          7.3 SECONDS, CPU UTILIZATION IS    96.24%

     --------------------------------------------------
          AMES LABORATORY DETERMINANTAL FULL CI
     PROGRAM WRITTEN BY JOE IVANIC AND KLAUS RUEDENBERG
     --------------------------------------------------

 THE NUMBER OF DETERMINANTS HAVING SPACE SYMMETRY A  
 IN POINT GROUP C1   WITH SZ=  0.0 IS            100
 WHICH INCLUDES             50 CSFS WITH S=  0.0
 WHICH INCLUDES             45 CSFS WITH S=  1.0
 WHICH INCLUDES              5 CSFS WITH S=  2.0
 THE DETERMINANT FULL CI REQUIRES          219273 WORDS
 SMALL CI MATRIX, JUST USING INCORE DIAGONALIZATION...

 CI EIGENVECTORS WILL BE LABELED IN GROUP=C1      
 PRINTING CI COEFFICIENTS LARGER THAN 5.000E-02

 STATE   1  ENERGY=      -383.4548891675  S=  0.00  SZ=  0.00  SPACE SYM=A   

ALPHA  |BETA   | CI COEFFICIENT
-------|-------|---------------
 11100 | 11100 |   0.9749955127
 11010 | 11010 |  -0.0994823209
 10101 | 10101 |  -0.0945005786
 10011 | 11100 |   0.0789445029
 11100 | 10011 |   0.0789445029
 11001 | 10110 |  -0.0601680285
 10110 | 11001 |  -0.0601680285
 10110 | 10110 |  -0.0548778898

 STATE   2  ENERGY=      -383.3138488061  S=  1.00  SZ=  0.00  SPACE SYM=A   

ALPHA  |BETA   | CI COEFFICIENT
-------|-------|---------------
 11010 | 11100 |   0.6860851027
 11100 | 11010 |  -0.6860851027
 10101 | 11100 |   0.0977895878
 11100 | 10101 |  -0.0977895878
 01110 | 11001 |   0.0730970254
 11001 | 01110 |  -0.0730970254
 10011 | 10101 |  -0.0691236588
 10101 | 10011 |   0.0691236588
 01110 | 10110 |   0.0538400211
 10110 | 01110 |  -0.0538400211
 01011 | 11100 |  -0.0527763498
 11100 | 01011 |   0.0527763498

 STATE   3  ENERGY=      -383.2680304224  S=  1.00  SZ=  0.00  SPACE SYM=A   

ALPHA  |BETA   | CI COEFFICIENT
-------|-------|---------------
 11100 | 11001 |   0.5598776878
 11001 | 11100 |  -0.5598776878
 11100 | 10110 |   0.4099396477
 10110 | 11100 |  -0.4099396477
 01101 | 10110 |  -0.1049178454
 10110 | 01101 |   0.1049178454

 STATE   4  ENERGY=      -383.2549972570  S=  1.00  SZ=  0.00  SPACE SYM=A   

ALPHA  |BETA   | CI COEFFICIENT
-------|-------|---------------
 11100 | 10101 |   0.6905329868
 10101 | 11100 |  -0.6905329868
 11010 | 11100 |   0.0984432269
 11100 | 11010 |  -0.0984432269
 10011 | 11010 |   0.0652568717
 11010 | 10011 |  -0.0652568717
 11010 | 01101 |   0.0504358260
 01101 | 11010 |  -0.0504358260

 STATE   5  ENERGY=      -383.2539715701  S=  0.00  SZ=  0.00  SPACE SYM=A   

ALPHA  |BETA   | CI COEFFICIENT
-------|-------|---------------
 11100 | 11001 |   0.5237268493
 11001 | 11100 |   0.5237268493
 11100 | 10110 |  -0.4477707604
 10110 | 11100 |  -0.4477707604
 01101 | 10110 |   0.0865335152
 10110 | 01101 |   0.0865335152
 11001 | 01101 |   0.0725989919
 01101 | 11001 |   0.0725989919

 STATE   6  ENERGY=      -383.2536232851  S=  1.00  SZ=  0.00  SPACE SYM=A   

ALPHA  |BETA   | CI COEFFICIENT
-------|-------|---------------
 10110 | 11100 |   0.5647307150
 11100 | 10110 |  -0.5647307150
 11001 | 11100 |  -0.4127610357
 11100 | 11001 |   0.4127610357
 11001 | 10011 |  -0.0582893870
 10011 | 11001 |   0.0582893870
 ..... DONE WITH DETERMINANT CI COMPUTATION .....
 CPU     0: STEP CPU TIME=     0.01 TOTAL CPU TIME=          7.0 (      0.1 MIN)
 TOTAL WALL CLOCK TIME=          7.3 SECONDS, CPU UTILIZATION IS    96.24%

     --------------------------------------------------
      ONE AND TWO PARTICLE DENSITY MATRIX COMPUTATION
     PROGRAM WRITTEN BY JOE IVANIC AND KLAUS RUEDENBERG
     --------------------------------------------------

      31891 WORDS WILL BE USED TO FORM THE DENSITIES
 THE DENSITIES ARE STATE AVERAGED OVER   2 ROOT(S)
 STATE=   1   ENERGY=     -383.4548891675   WEIGHT= 0.50000   S=  0.00
 STATE=   5   ENERGY=     -383.2539715701   WEIGHT= 0.50000   S=  0.00
 SIEVING THE A    SYMMETRY NONZERO DENSITY ELEMENTS IN GROUP C1      
         39 NONZERO DM2 ELEMENTS WRITTEN IN       1 RECORDS TO FILE 15
 ..... DONE WITH 1 AND 2 PARTICLE DENSITY MATRIX .....
 CPU     0: STEP CPU TIME=     0.00 TOTAL CPU TIME=          7.0 (      0.1 MIN)
 TOTAL WALL CLOCK TIME=          7.3 SECONDS, CPU UTILIZATION IS    96.20%

     --------------------------------     -----------------------------
     MCHF NEWTON-RAPHSON OPTIMIZATION     CODE WRITTEN BY MICHEL DUPUIS
     --------------------------------     -----------------------------
     PARALLEL VERSION WRITTEN BY G. FLETCHER (ELORET)
     NASA ADVANCED SUPERCOMPUTING DIVISION, AMES RESEARCH CENTER

 NUMBER OF INDEPENDENT ORBITAL ROTATION PARAMETERS =  1389
 ..... DONE SOLVING NEWTON-RAPHSON EQUATIONS .....
 CPU     0: STEP CPU TIME=     0.28 TOTAL CPU TIME=          7.3 (      0.1 MIN)
 TOTAL WALL CLOCK TIME=          8.9 SECONDS, CPU UTILIZATION IS    82.28%
 ..... DONE WITH NTN-RPH ORBITAL ROTATIONS ..... 
 CPU     0: STEP CPU TIME=     0.10 TOTAL CPU TIME=          7.4 (      0.1 MIN)
 TOTAL WALL CLOCK TIME=          9.0 SECONDS, CPU UTILIZATION IS    82.44%
 MAXIMUM MEMORY USED BY NTN-RPH CODE WAS   1058140 WORDS.

 ITER     TOTAL ENERGY      DEL(E)  LAGRANGIAN ASYMMETRY   SQCDF  MICIT   DAMP
   1     -383.354430369 -0.354430369  0.010326   40   33 1.029E-03  1   0.0000
   2     -383.354907666 -0.000477297  0.001337   40   33 1.080E-05  1   0.0000
   3     -383.354915811 -0.000008145  0.000325   40   33 7.316E-07  1   0.0000
   4     -383.354916377 -0.000000566  0.000086   40   33 6.076E-08  1   0.0000
   5     -383.354916418 -0.000000042  0.000024   40   33 5.430E-09  1   0.0000
   6     -383.354916422 -0.000000003  0.000007   40   33 3.594E-10  1   0.0000

          --------------------
          LAGRANGIAN CONVERGED
          --------------------

 FINAL MCSCF ENERGY IS     -383.3549164217 AFTER   6 ITERATIONS

 -MCCI- BASED ON OPTIMIZED ORBITALS
 ----------------------------------

 PLEASE NOTE: IF THE ACTIVE ORBITALS ARE CANONICALIZED BELOW,
 THE FOLLOWING CI EXPANSION COEFFICIENTS AND THE DENSITY DO NOT
 CORRESPOND TO THE PRINTED ORBITALS.  THE PRINTED EXPANSIONS MATCH
 THE ORBITALS USED DURING THE LAST ITERATION.  IF YOU WISH TO SEE
 CI EXPANSIONS BASED ON THE CANONICAL (OR NATURAL) ORBITALS, YOU
 MUST RUN A CI CALCULATION WITH THAT ORBITAL CHOICE READ IN $VEC.

 CI EIGENVECTORS WILL BE LABELED IN GROUP=C1      
 PRINTING CI COEFFICIENTS LARGER THAN 5.000E-02

 STATE   1  ENERGY=      -383.4563987477  S=  0.00  SZ=  0.00  SPACE SYM=A   

ALPHA  |BETA   | CI COEFFICIENT
-------|-------|---------------
 11100 | 11100 |   0.9750725119
 11010 | 11010 |  -0.0997875069
 10101 | 10101 |  -0.0966782101
 10011 | 11100 |   0.0784516384
 11100 | 10011 |   0.0784516384
 10110 | 11001 |  -0.0590730320
 11001 | 10110 |  -0.0590730320
 10110 | 10110 |  -0.0528388590

 STATE   2  ENERGY=      -383.3137686836  S=  1.00  SZ=  0.00  SPACE SYM=A   

ALPHA  |BETA   | CI COEFFICIENT
-------|-------|---------------
 11100 | 11010 |   0.6856233306
 11010 | 11100 |  -0.6856233306
 11100 | 10101 |   0.1018802922
 10101 | 11100 |  -0.1018802922
 11001 | 01110 |   0.0735289338
 01110 | 11001 |  -0.0735289338
 10101 | 10011 |  -0.0708735551
 10011 | 10101 |   0.0708735551
 10110 | 01110 |   0.0537553153
 01110 | 10110 |  -0.0537553153

 STATE   3  ENERGY=      -383.2671806000  S=  1.00  SZ=  0.00  SPACE SYM=A   

ALPHA  |BETA   | CI COEFFICIENT
-------|-------|---------------
 11001 | 11100 |   0.5152839420
 11100 | 11001 |  -0.5152839420
 11100 | 10110 |  -0.4655424328
 10110 | 11100 |   0.4655424328
 01101 | 10110 |   0.1021705596
 10110 | 01101 |  -0.1021705596

 STATE   4  ENERGY=      -383.2567081965  S=  1.00  SZ=  0.00  SPACE SYM=A   

ALPHA  |BETA   | CI COEFFICIENT
-------|-------|---------------
 10101 | 11100 |   0.6900445996
 11100 | 10101 |  -0.6900445996
 11100 | 11010 |   0.1026246236
 11010 | 11100 |  -0.1026246236
 11010 | 10011 |   0.0656648982
 10011 | 11010 |  -0.0656648982

 STATE   5  ENERGY=      -383.2538079749  S=  1.00  SZ=  0.00  SPACE SYM=A   

ALPHA  |BETA   | CI COEFFICIENT
-------|-------|---------------
 10110 | 11100 |   0.5204412636
 11100 | 10110 |  -0.5204412636
 11001 | 11100 |  -0.4674045458
 11100 | 11001 |   0.4674045458
 11001 | 10011 |  -0.0572451043
 10011 | 11001 |   0.0572451043
 10110 | 10011 |   0.0508822693
 10011 | 10110 |  -0.0508822693

 STATE   6  ENERGY=      -383.2534340956  S=  0.00  SZ=  0.00  SPACE SYM=A   

ALPHA  |BETA   | CI COEFFICIENT
-------|-------|---------------
 11100 | 11001 |   0.5141756071
 11001 | 11100 |   0.5141756071
 11100 | 10110 |  -0.4591978804
 10110 | 11100 |  -0.4591978804
 10110 | 01101 |   0.0839279830
 01101 | 10110 |   0.0839279830
 11001 | 01101 |   0.0748939262
 01101 | 11001 |   0.0748939262

 DENSITY MATRIX OVER ACTIVE MO-S

             1           2           3           4           5

    1    1.9712142
    2    0.0000000   1.7493553
    3   -0.0000000   0.0000000   1.6983189
    4    0.0000000   0.0000000   0.0000000   0.2609927
    5   -0.0150780   0.0000000  -0.0000000  -0.0000000   0.3201190

 FORMING THE "STANDARD FOCK OPERATOR" IN DIRECT AO INTEGRAL MODE...
    31 FILLED,    5 ACTIVE, AND  238 VIRTUAL ORBITALS  WILL BE CANONICALIZED

          ----------------------
          MCSCF NATURAL ORBITALS
          ----------------------

                      1          2          3          4          5
                  -11.2432   -11.2425   -11.2360   -11.2360   -11.2359
                     A          A          A          A          A   
    1  C  1  S    0.396056  -0.395470  -0.000000  -0.000000  -0.043089
    2  C  1  S    0.327257  -0.326760  -0.000000  -0.000000  -0.035598
    3  C  1  X    0.000000  -0.000000  -0.000169   0.000168  -0.000000
    4  C  1  Y    0.000185  -0.000031  -0.000000  -0.000000  -0.000108
    5  C  1  Z    0.000000  -0.000000  -0.000000  -0.000000  -0.000000
    6  C  1  S    0.004513  -0.003863  -0.000000  -0.000000   0.000043
    7  C  1  X    0.000000  -0.000000  -0.000268   0.000279  -0.000000
    8  C  1  Y    0.000175   0.000559  -0.000000  -0.000000  -0.000293
    9  C  1  Z    0.000000  -0.000000  -0.000000  -0.000000  -0.000000
   10  C  1  S    0.002252  -0.001995  -0.000000  -0.000000  -0.001491
   11  C  1  X   -0.000000  -0.000000  -0.000789   0.002903   0.000000
   12  C  1  Y    0.000002   0.002954  -0.000000  -0.000000   0.000034
   13  C  1  Z    0.000000  -0.000000  -0.000000  -0.000000  -0.000000
   14  C  1 XX   -0.000509   0.000486  -0.000000  -0.000000   0.000233
   15  C  1 YY   -0.000503   0.000802  -0.000000  -0.000000   0.000089
   16  C  1 ZZ   -0.000990   0.001034  -0.000000  -0.000000   0.000153
   17  C  1 XY    0.000000  -0.000000   0.000118  -0.000135  -0.000000
   18  C  1 XZ    0.000000  -0.000000  -0.000000  -0.000000  -0.000000
   19  C  1 YZ    0.000000  -0.000000  -0.000000  -0.000000  -0.000000
   20  C  1 XX   -0.001076   0.001921  -0.000000  -0.000000   0.000147
   21  C  1 YY   -0.001172   0.001451  -0.000000  -0.000000   0.000543
   22  C  1 ZZ   -0.000782   0.001030  -0.000000  -0.000000   0.000349
   23  C  1 XY    0.000000  -0.000000  -0.000135   0.000847  -0.000000
   24  C  1 XZ    0.000000  -0.000000  -0.000000  -0.000000  -0.000000
   25  C  1 YZ    0.000000  -0.000000  -0.000000  -0.000000  -0.000000
   26  C  2  S    0.396056   0.395470  -0.000000  -0.000000  -0.043089
   27  C  2  S    0.327257   0.326760  -0.000000  -0.000000  -0.035598
   28  C  2  X    0.000000  -0.000000  -0.000169  -0.000168  -0.000000
   29  C  2  Y   -0.000185  -0.000031  -0.000000  -0.000000   0.000108
   30  C  2  Z    0.000000  -0.000000  -0.000000  -0.000000  -0.000000
   31  C  2  S    0.004513   0.003863  -0.000000  -0.000000   0.000043
   32  C  2  X    0.000000  -0.000000  -0.000268  -0.000279  -0.000000
   33  C  2  Y   -0.000175   0.000559  -0.000000  -0.000000   0.000293
   34  C  2  Z    0.000000  -0.000000  -0.000000  -0.000000  -0.000000
   35  C  2  S    0.002252   0.001995  -0.000000  -0.000000  -0.001491
   36  C  2  X    0.000000   0.000000  -0.000789  -0.002903  -0.000000
   37  C  2  Y   -0.000002   0.002954  -0.000000  -0.000000  -0.000034
   38  C  2  Z    0.000000  -0.000000  -0.000000  -0.000000  -0.000000
   39  C  2 XX   -0.000509  -0.000486  -0.000000  -0.000000   0.000233
   40  C  2 YY   -0.000503  -0.000802  -0.000000  -0.000000   0.000089
   41  C  2 ZZ   -0.000990  -0.001034  -0.000000  -0.000000   0.000153
   42  C  2 XY    0.000000  -0.000000  -0.000118  -0.000135  -0.000000
   43  C  2 XZ    0.000000  -0.000000  -0.000000  -0.000000  -0.000000
   44  C  2 YZ    0.000000  -0.000000  -0.000000  -0.000000  -0.000000
   45  C  2 XX   -0.001076  -0.001921  -0.000000  -0.000000   0.000147
   46  C  2 YY   -0.001172  -0.001451  -0.000000  -0.000000   0.000543
   47  C  2 ZZ   -0.000782  -0.001030  -0.000000  -0.000000   0.000349
   48  C  2 XY    0.000000  -0.000000   0.000135   0.000847  -0.000000
   49  C  2 XZ    0.000000  -0.000000  -0.000000  -0.000000  -0.000000
   50  C  2 YZ    0.000000  -0.000000  -0.000000  -0.000000  -0.000000
   51  C  3  S    0.030552  -0.034645  -0.277921   0.279367   0.276065
   52  C  3  S    0.025253  -0.028598  -0.229641   0.230815   0.228146
   53  C  3  X   -0.000116   0.000110   0.000032  -0.000037  -0.000027
   54  C  3  Y    0.000050  -0.000034   0.000035  -0.000030  -0.000052
   55  C  3  Z    0.000000  -0.000000  -0.000000  -0.000000  -0.000000
   56  C  3  S    0.000778  -0.001056  -0.002964   0.003456   0.002695
   57  C  3  X   -0.000209   0.000384  -0.000007  -0.000031   0.000125
   58  C  3  Y    0.000116  -0.000292  -0.000096   0.000145   0.000134
   59  C  3  Z    0.000000  -0.000000  -0.000000  -0.000000  -0.000000
   60  C  3  S   -0.000559   0.001296  -0.001456  -0.000160   0.002500
   61  C  3  X    0.000101  -0.000881  -0.000367   0.000668  -0.000024
   62  C  3  Y   -0.000129  -0.000431   0.000544  -0.001120   0.000083
   63  C  3  Z    0.000000  -0.000000  -0.000000  -0.000000  -0.000000
   64  C  3 XX    0.000084  -0.000061   0.000386  -0.000400  -0.000376
   65  C  3 YY   -0.000026   0.000042   0.000434  -0.000425  -0.000424
   66  C  3 ZZ   -0.000041   0.000087   0.000743  -0.000757  -0.000697
   67  C  3 XY   -0.000065   0.000078  -0.000013   0.000016   0.000025
   68  C  3 XZ    0.000000  -0.000000  -0.000000  -0.000000  -0.000000
   69  C  3 YZ    0.000000  -0.000000  -0.000000  -0.000000  -0.000000
   70  C  3 XX    0.000081   0.000232   0.000906  -0.000487  -0.000970
   71  C  3 YY    0.000241  -0.000348   0.000978  -0.001069  -0.000775
   72  C  3 ZZ    0.000113  -0.000176   0.000684  -0.000557  -0.000796
   73  C  3 XY    0.000125  -0.000053  -0.000044   0.000073  -0.000044
   74  C  3 XZ    0.000000  -0.000000  -0.000000  -0.000000  -0.000000
   75  C  3 YZ    0.000000  -0.000000  -0.000000  -0.000000  -0.000000
   76  C  4  S    0.030552  -0.034645   0.277921  -0.279367   0.276065
   77  C  4  S    0.025253  -0.028598   0.229641  -0.230815   0.228146
   78  C  4  X    0.000116  -0.000110   0.000032  -0.000037   0.000027
   79  C  4  Y    0.000050  -0.000034  -0.000035   0.000030  -0.000052
   80  C  4  Z    0.000000  -0.000000  -0.000000  -0.000000  -0.000000
   81  C  4  S    0.000778  -0.001056   0.002964  -0.003456   0.002695
   82  C  4  X    0.000209  -0.000384  -0.000007  -0.000031  -0.000125
   83  C  4  Y    0.000116  -0.000292   0.000096  -0.000145   0.000134
   84  C  4  Z    0.000000  -0.000000  -0.000000  -0.000000  -0.000000
   85  C  4  S   -0.000559   0.001296   0.001456   0.000160   0.002500
   86  C  4  X   -0.000101   0.000881  -0.000367   0.000668   0.000024
   87  C  4  Y   -0.000129  -0.000431  -0.000544   0.001120   0.000083
   88  C  4  Z    0.000000  -0.000000  -0.000000  -0.000000  -0.000000
   89  C  4 XX    0.000084  -0.000061  -0.000386   0.000400  -0.000376
   90  C  4 YY   -0.000026   0.000042  -0.000434   0.000425  -0.000424
   91  C  4 ZZ   -0.000041   0.000087  -0.000743   0.000757  -0.000697
   92  C  4 XY    0.000065  -0.000078  -0.000013   0.000016  -0.000025
   93  C  4 XZ    0.000000  -0.000000  -0.000000  -0.000000  -0.000000
   94  C  4 YZ    0.000000  -0.000000  -0.000000  -0.000000  -0.000000
   95  C  4 XX    0.000081   0.000232  -0.000906   0.000487  -0.000970
   96  C  4 YY    0.000241  -0.000348  -0.000978   0.001069  -0.000775
   97  C  4 ZZ    0.000113  -0.000176  -0.000684   0.000557  -0.000796
   98  C  4 XY   -0.000125   0.000053  -0.000044   0.000073   0.000044
   99  C  4 XZ    0.000000  -0.000000  -0.000000  -0.000000  -0.000000
  100  C  4 YZ    0.000000  -0.000000  -0.000000  -0.000000  -0.000000
  101  C  5  S    0.030552   0.034645  -0.277921  -0.279367   0.276065
  102  C  5  S    0.025253   0.028598  -0.229641  -0.230815   0.228146
  103  C  5  X   -0.000116  -0.000110   0.000032   0.000037  -0.000027
  104  C  5  Y   -0.000050  -0.000034  -0.000035  -0.000030   0.000052
  105  C  5  Z    0.000000  -0.000000  -0.000000  -0.000000  -0.000000
  106  C  5  S    0.000778   0.001056  -0.002964  -0.003456   0.002695
  107  C  5  X   -0.000209  -0.000384  -0.000007   0.000031   0.000125
  108  C  5  Y   -0.000116  -0.000292   0.000096   0.000145  -0.000134
  109  C  5  Z    0.000000  -0.000000  -0.000000  -0.000000  -0.000000
  110  C  5  S   -0.000559  -0.001296  -0.001456   0.000160   0.002500
  111  C  5  X    0.000101   0.000881  -0.000367  -0.000668  -0.000024
  112  C  5  Y    0.000129  -0.000431  -0.000544  -0.001120  -0.000083
  113  C  5  Z    0.000000  -0.000000  -0.000000  -0.000000  -0.000000
  114  C  5 XX    0.000084   0.000061   0.000386   0.000400  -0.000376
  115  C  5 YY   -0.000026  -0.000042   0.000434   0.000425  -0.000424
  116  C  5 ZZ   -0.000041  -0.000087   0.000743   0.000757  -0.000697
  117  C  5 XY    0.000065   0.000078   0.000013   0.000016  -0.000025
  118  C  5 XZ    0.000000  -0.000000  -0.000000  -0.000000  -0.000000
  119  C  5 YZ    0.000000  -0.000000  -0.000000  -0.000000  -0.000000
  120  C  5 XX    0.000081  -0.000232   0.000906   0.000487  -0.000970
  121  C  5 YY    0.000241   0.000348   0.000978   0.001069  -0.000775
  122  C  5 ZZ    0.000113   0.000176   0.000684   0.000557  -0.000796
  123  C  5 XY   -0.000125  -0.000053   0.000044   0.000073   0.000044
  124  C  5 XZ    0.000000  -0.000000  -0.000000  -0.000000  -0.000000
  125  C  5 YZ    0.000000  -0.000000  -0.000000  -0.000000  -0.000000
  126  C  6  S    0.030552   0.034645   0.277921   0.279367   0.276065
  127  C  6  S    0.025253   0.028598   0.229641   0.230815   0.228146
  128  C  6  X    0.000116   0.000110   0.000032   0.000037   0.000027
  129  C  6  Y   -0.000050  -0.000034   0.000035   0.000030   0.000052
  130  C  6  Z    0.000000  -0.000000  -0.000000  -0.000000  -0.000000
  131  C  6  S    0.000778   0.001056   0.002964   0.003456   0.002695
  132  C  6  X    0.000209   0.000384  -0.000007   0.000031  -0.000125
  133  C  6  Y   -0.000116  -0.000292  -0.000096  -0.000145  -0.000134
  134  C  6  Z    0.000000  -0.000000  -0.000000  -0.000000  -0.000000
  135  C  6  S   -0.000559  -0.001296   0.001456  -0.000160   0.002500
  136  C  6  X   -0.000101  -0.000881  -0.000367  -0.000668   0.000024
  137  C  6  Y    0.000129  -0.000431   0.000544   0.001120  -0.000083
  138  C  6  Z    0.000000  -0.000000  -0.000000  -0.000000  -0.000000
  139  C  6 XX    0.000084   0.000061  -0.000386  -0.000400  -0.000376
  140  C  6 YY   -0.000026  -0.000042  -0.000434  -0.000425  -0.000424
  141  C  6 ZZ   -0.000041  -0.000087  -0.000743  -0.000757  -0.000697
  142  C  6 XY   -0.000065  -0.000078   0.000013   0.000016   0.000025
  143  C  6 XZ    0.000000  -0.000000  -0.000000  -0.000000  -0.000000
  144  C  6 YZ    0.000000  -0.000000  -0.000000  -0.000000  -0.000000
  145  C  6 XX    0.000081  -0.000232  -0.000906  -0.000487  -0.000970
  146  C  6 YY    0.000241   0.000348  -0.000978  -0.001069  -0.000775
  147  C  6 ZZ    0.000113   0.000176  -0.000684  -0.000557  -0.000796
  148  C  6 XY    0.000125   0.000053   0.000044   0.000073  -0.000044
  149  C  6 XZ    0.000000  -0.000000  -0.000000  -0.000000  -0.000000
  150  C  6 YZ    0.000000  -0.000000  -0.000000  -0.000000  -0.000000
  151  C  7  S    0.001311  -0.001956  -0.046212   0.036520   0.047333
  152  C  7  S    0.001112  -0.001618  -0.038178   0.030154   0.039114
  153  C  7  X   -0.000016   0.000014   0.000066  -0.000072  -0.000078
  154  C  7  Y   -0.000003   0.000010   0.000036  -0.000066  -0.000034
  155  C  7  Z    0.000000  -0.000000  -0.000000  -0.000000  -0.000000
  156  C  7  S   -0.000151  -0.000192  -0.000848   0.000440   0.000781
  157  C  7  X    0.000095  -0.000035   0.000182  -0.000199  -0.000134
  158  C  7  Y   -0.000030  -0.000026   0.000086  -0.000054  -0.000088
  159  C  7  Z    0.000000  -0.000000  -0.000000  -0.000000  -0.000000
  160  C  7  S    0.000076   0.000217   0.000269   0.000931  -0.000226
  161  C  7  X    0.000007  -0.000202  -0.000062  -0.000142   0.000128
  162  C  7  Y    0.000005  -0.000239  -0.000150   0.000568   0.000041
  163  C  7  Z    0.000000  -0.000000  -0.000000  -0.000000  -0.000000
  164  C  7 XX    0.000009   0.000001   0.000001   0.000018  -0.000004
  165  C  7 YY    0.000022  -0.000004   0.000034  -0.000056  -0.000023
  166  C  7 ZZ    0.000027  -0.000007   0.000102  -0.000104  -0.000092
  167  C  7 XY    0.000017  -0.000006  -0.000060   0.000051   0.000053
  168  C  7 XZ    0.000000  -0.000000  -0.000000  -0.000000  -0.000000
  169  C  7 YZ    0.000000  -0.000000  -0.000000  -0.000000  -0.000000
  170  C  7 XX   -0.000003  -0.000037   0.000006  -0.000270  -0.000074
  171  C  7 YY    0.000036  -0.000298  -0.000006  -0.000265  -0.000019
  172  C  7 ZZ   -0.000043   0.000000  -0.000030  -0.000044  -0.000004
  173  C  7 XY   -0.000037  -0.000141   0.000071  -0.000217  -0.000039
  174  C  7 XZ    0.000000  -0.000000  -0.000000  -0.000000  -0.000000
  175  C  7 YZ    0.000000  -0.000000  -0.000000  -0.000000  -0.000000
  176  C  8  S    0.001311  -0.001956   0.046212  -0.036520   0.047333
  177  C  8  S    0.001112  -0.001618   0.038178  -0.030154   0.039114
  178  C  8  X    0.000016  -0.000014   0.000066  -0.000072   0.000078
  179  C  8  Y   -0.000003   0.000010  -0.000036   0.000066  -0.000034
  180  C  8  Z    0.000000  -0.000000  -0.000000  -0.000000  -0.000000
  181  C  8  S   -0.000151  -0.000192   0.000848  -0.000440   0.000781
  182  C  8  X   -0.000095   0.000035   0.000182  -0.000199   0.000134
  183  C  8  Y   -0.000030  -0.000026  -0.000086   0.000054  -0.000088
  184  C  8  Z    0.000000  -0.000000  -0.000000  -0.000000  -0.000000
  185  C  8  S    0.000076   0.000217  -0.000269  -0.000931  -0.000226
  186  C  8  X   -0.000007   0.000202  -0.000062  -0.000142  -0.000128
  187  C  8  Y    0.000005  -0.000239   0.000150  -0.000568   0.000041
  188  C  8  Z    0.000000  -0.000000  -0.000000  -0.000000  -0.000000
  189  C  8 XX    0.000009   0.000001  -0.000001  -0.000018  -0.000004
  190  C  8 YY    0.000022  -0.000004  -0.000034   0.000056  -0.000023
  191  C  8 ZZ    0.000027  -0.000007  -0.000102   0.000104  -0.000092
  192  C  8 XY   -0.000017   0.000006  -0.000060   0.000051  -0.000053
  193  C  8 XZ    0.000000  -0.000000  -0.000000  -0.000000  -0.000000
  194  C  8 YZ    0.000000  -0.000000  -0.000000  -0.000000  -0.000000
  195  C  8 XX   -0.000003  -0.000037  -0.000006   0.000270  -0.000074
  196  C  8 YY    0.000036  -0.000298   0.000006   0.000265  -0.000019
  197  C  8 ZZ   -0.000043   0.000000   0.000030   0.000044  -0.000004
  198  C  8 XY    0.000037   0.000141   0.000071  -0.000217   0.000039
  199  C  8 XZ    0.000000  -0.000000  -0.000000  -0.000000  -0.000000
  200  C  8 YZ    0.000000  -0.000000  -0.000000  -0.000000  -0.000000
  201  C  9  S    0.001311   0.001956  -0.046212  -0.036520   0.047333
  202  C  9  S    0.001112   0.001618  -0.038178  -0.030154   0.039114
  203  C  9  X   -0.000016  -0.000014   0.000066   0.000072  -0.000078
  204  C  9  Y    0.000003   0.000010  -0.000036  -0.000066   0.000034
  205  C  9  Z    0.000000  -0.000000  -0.000000  -0.000000  -0.000000
  206  C  9  S   -0.000151   0.000192  -0.000848  -0.000440   0.000781
  207  C  9  X    0.000095   0.000035   0.000182   0.000199  -0.000134
  208  C  9  Y    0.000030  -0.000026  -0.000086  -0.000054   0.000088
  209  C  9  Z    0.000000  -0.000000  -0.000000  -0.000000  -0.000000
  210  C  9  S    0.000076  -0.000217   0.000269  -0.000931  -0.000226
  211  C  9  X    0.000007   0.000202  -0.000062   0.000142   0.000128
  212  C  9  Y   -0.000005  -0.000239   0.000150   0.000568  -0.000041
  213  C  9  Z    0.000000  -0.000000  -0.000000  -0.000000  -0.000000
  214  C  9 XX    0.000009  -0.000001   0.000001  -0.000018  -0.000004
  215  C  9 YY    0.000022   0.000004   0.000034   0.000056  -0.000023
  216  C  9 ZZ    0.000027   0.000007   0.000102   0.000104  -0.000092
  217  C  9 XY   -0.000017  -0.000006   0.000060   0.000051  -0.000053
  218  C  9 XZ    0.000000  -0.000000  -0.000000  -0.000000  -0.000000
  219  C  9 YZ    0.000000  -0.000000  -0.000000  -0.000000  -0.000000
  220  C  9 XX   -0.000003   0.000037   0.000006   0.000270  -0.000074
  221  C  9 YY    0.000036   0.000298  -0.000006   0.000265  -0.000019
  222  C  9 ZZ   -0.000043  -0.000000  -0.000030   0.000044  -0.000004
  223  C  9 XY    0.000037  -0.000141  -0.000071  -0.000217   0.000039
  224  C  9 XZ    0.000000  -0.000000  -0.000000  -0.000000  -0.000000
  225  C  9 YZ    0.000000  -0.000000  -0.000000  -0.000000  -0.000000
  226  C 10  S    0.001311   0.001956   0.046212   0.036520   0.047333
  227  C 10  S    0.001112   0.001618   0.038178   0.030154   0.039114
  228  C 10  X    0.000016   0.000014   0.000066   0.000072   0.000078
  229  C 10  Y    0.000003   0.000010   0.000036   0.000066   0.000034
  230  C 10  Z    0.000000  -0.000000  -0.000000  -0.000000  -0.000000
  231  C 10  S   -0.000151   0.000192   0.000848   0.000440   0.000781
  232  C 10  X   -0.000095  -0.000035   0.000182   0.000199   0.000134
  233  C 10  Y    0.000030  -0.000026   0.000086   0.000054   0.000088
  234  C 10  Z    0.000000  -0.000000  -0.000000  -0.000000  -0.000000
  235  C 10  S    0.000076  -0.000217  -0.000269   0.000931  -0.000226
  236  C 10  X   -0.000007  -0.000202  -0.000062   0.000142  -0.000128
  237  C 10  Y   -0.000005  -0.000239  -0.000150  -0.000568  -0.000041
  238  C 10  Z    0.000000  -0.000000  -0.000000  -0.000000  -0.000000
  239  C 10 XX    0.000009  -0.000001  -0.000001   0.000018  -0.000004
  240  C 10 YY    0.000022   0.000004  -0.000034  -0.000056  -0.000023
  241  C 10 ZZ    0.000027   0.000007  -0.000102  -0.000104  -0.000092
  242  C 10 XY    0.000017   0.000006   0.000060   0.000051   0.000053
  243  C 10 XZ    0.000000  -0.000000  -0.000000  -0.000000  -0.000000
  244  C 10 YZ    0.000000  -0.000000  -0.000000  -0.000000  -0.000000
  245  C 10 XX   -0.000003   0.000037  -0.000006  -0.000270  -0.000074
  246  C 10 YY    0.000036   0.000298   0.000006  -0.000265  -0.000019
  247  C 10 ZZ   -0.000043  -0.000000   0.000030  -0.000044  -0.000004
  248  C 10 XY   -0.000037   0.000141  -0.000071  -0.000217  -0.000039
  249  C 10 XZ    0.000000  -0.000000  -0.000000  -0.000000  -0.000000
  250  C 10 YZ    0.000000  -0.000000  -0.000000  -0.000000  -0.000000
  251  H 11  S   -0.000001   0.000026  -0.000195   0.000222   0.000175
  252  H 11  S   -0.000122  -0.000055  -0.000179   0.000214   0.000101
  253  H 11  S    0.000004  -0.000145   0.000392  -0.000480  -0.000178
  254  H 12  S   -0.000001   0.000026   0.000195  -0.000222   0.000175
  255  H 12  S   -0.000122  -0.000055   0.000179  -0.000214   0.000101
  256  H 12  S    0.000004  -0.000145  -0.000392   0.000480  -0.000178
  257  H 13  S   -0.000001  -0.000026  -0.000195  -0.000222   0.000175
  258  H 13  S   -0.000122   0.000055  -0.000179  -0.000214   0.000101
  259  H 13  S    0.000004   0.000145   0.000392   0.000480  -0.000178
  260  H 14  S   -0.000001  -0.000026   0.000195   0.000222   0.000175
  261  H 14  S   -0.000122   0.000055   0.000179   0.000214   0.000101
  262  H 14  S    0.000004   0.000145  -0.000392  -0.000480  -0.000178
  263  H 15  S   -0.000006  -0.000009  -0.000015   0.000008   0.000016
  264  H 15  S   -0.000053   0.000025   0.000012   0.000099   0.000000
  265  H 15  S    0.000005   0.000006  -0.000006   0.000020  -0.000030
  266  H 16  S   -0.000006  -0.000009   0.000015  -0.000008   0.000016
  267  H 16  S   -0.000053   0.000025  -0.000012  -0.000099   0.000000
  268  H 16  S    0.000005   0.000006   0.000006  -0.000020  -0.000030
  269  H 17  S   -0.000006   0.000009  -0.000015  -0.000008   0.000016
  270  H 17  S   -0.000053  -0.000025   0.000012  -0.000099   0.000000
  271  H 17  S    0.000005  -0.000006  -0.000006  -0.000020  -0.000030
  272  H 18  S   -0.000006   0.000009   0.000015   0.000008   0.000016
  273  H 18  S   -0.000053  -0.000025  -0.000012   0.000099   0.000000
  274  H 18  S    0.000005  -0.000006   0.000006   0.000020  -0.000030

                      6          7          8          9         10
                  -11.2359   -11.2321   -11.2321   -11.2310   -11.2310
                     A          A          A          A          A   
    1  C  1  S   -0.049124  -0.000000   0.005469  -0.000000  -0.003761
    2  C  1  S   -0.040622  -0.000000   0.004558  -0.000000  -0.003108
    3  C  1  X   -0.000000  -0.000010  -0.000000   0.000039  -0.000000
    4  C  1  Y   -0.000108  -0.000000   0.000030  -0.000000   0.000008
    5  C  1  Z   -0.000000  -0.000000  -0.000000  -0.000000  -0.000000
    6  C  1  S   -0.000118  -0.000000  -0.000258  -0.000000  -0.001172
    7  C  1  X   -0.000000  -0.000233  -0.000000  -0.000038  -0.000000
    8  C  1  Y    0.000067  -0.000000  -0.000046  -0.000000  -0.000136
    9  C  1  Z   -0.000000  -0.000000  -0.000000  -0.000000  -0.000000
   10  C  1  S   -0.000943  -0.000000   0.000077  -0.000000   0.001909
   11  C  1  X   -0.000000   0.000063  -0.000000   0.000810   0.000000
   12  C  1  Y   -0.000119  -0.000000   0.000044  -0.000000   0.000064
   13  C  1  Z   -0.000000  -0.000000  -0.000000  -0.000000  -0.000000
   14  C  1 XX    0.000252  -0.000000  -0.000030  -0.000000   0.000022
   15  C  1 YY    0.000136  -0.000000   0.000000  -0.000000   0.000024
   16  C  1 ZZ    0.000120  -0.000000   0.000020  -0.000000  -0.000011
   17  C  1 XY   -0.000000   0.000007  -0.000000  -0.000016  -0.000000
   18  C  1 XZ   -0.000000  -0.000000  -0.000000  -0.000000  -0.000000
   19  C  1 YZ   -0.000000  -0.000000  -0.000000  -0.000000  -0.000000
   20  C  1 XX   -0.000608  -0.000000  -0.000002  -0.000000  -0.000611
   21  C  1 YY    0.000277  -0.000000   0.000054  -0.000000  -0.001276
   22  C  1 ZZ    0.000404  -0.000000  -0.000137  -0.000000  -0.000325
   23  C  1 XY   -0.000000   0.000040  -0.000000   0.000125  -0.000000
   24  C  1 XZ   -0.000000  -0.000000  -0.000000  -0.000000  -0.000000
   25  C  1 YZ   -0.000000  -0.000000  -0.000000  -0.000000  -0.000000
   26  C  2  S    0.049124  -0.000000   0.005469  -0.000000   0.003761
   27  C  2  S    0.040622  -0.000000   0.004558  -0.000000   0.003108
   28  C  2  X   -0.000000  -0.000010  -0.000000  -0.000039  -0.000000
   29  C  2  Y   -0.000108  -0.000000  -0.000030  -0.000000   0.000008
   30  C  2  Z   -0.000000  -0.000000  -0.000000  -0.000000  -0.000000
   31  C  2  S    0.000118  -0.000000  -0.000258  -0.000000   0.001172
   32  C  2  X   -0.000000  -0.000233  -0.000000   0.000038  -0.000000
   33  C  2  Y    0.000067  -0.000000   0.000046  -0.000000  -0.000136
   34  C  2  Z   -0.000000  -0.000000  -0.000000  -0.000000  -0.000000
   35  C  2  S    0.000943  -0.000000   0.000077   0.000000  -0.001909
   36  C  2  X   -0.000000   0.000063  -0.000000  -0.000810  -0.000000
   37  C  2  Y   -0.000119  -0.000000  -0.000044  -0.000000   0.000064
   38  C  2  Z   -0.000000  -0.000000  -0.000000  -0.000000  -0.000000
   39  C  2 XX   -0.000252  -0.000000  -0.000030  -0.000000  -0.000022
   40  C  2 YY   -0.000136  -0.000000   0.000000  -0.000000  -0.000024
   41  C  2 ZZ   -0.000120  -0.000000   0.000020  -0.000000   0.000011
   42  C  2 XY   -0.000000  -0.000007  -0.000000  -0.000016  -0.000000
   43  C  2 XZ   -0.000000  -0.000000  -0.000000  -0.000000  -0.000000
   44  C  2 YZ   -0.000000  -0.000000  -0.000000  -0.000000  -0.000000
   45  C  2 XX    0.000608  -0.000000  -0.000002  -0.000000   0.000611
   46  C  2 YY   -0.000277  -0.000000   0.000054  -0.000000   0.001276
   47  C  2 ZZ   -0.000404  -0.000000  -0.000137  -0.000000   0.000325
   48  C  2 XY   -0.000000  -0.000040  -0.000000   0.000125  -0.000000
   49  C  2 XZ   -0.000000  -0.000000  -0.000000  -0.000000  -0.000000
   50  C  2 YZ   -0.000000  -0.000000  -0.000000  -0.000000  -0.000000
   51  C  3  S    0.277137  -0.046320  -0.047308   0.036615   0.037182
   52  C  3  S    0.228982  -0.038283  -0.039089   0.030272   0.030726
   53  C  3  X   -0.000011   0.000105   0.000090  -0.000103  -0.000087
   54  C  3  Y   -0.000088   0.000054   0.000059  -0.000061  -0.000071
   55  C  3  Z   -0.000000  -0.000000  -0.000000  -0.000000  -0.000000
   56  C  3  S    0.003517  -0.000138  -0.000312   0.000233   0.000776
   57  C  3  X   -0.000010   0.000046   0.000119  -0.000093  -0.000137
   58  C  3  Y    0.000380   0.000052   0.000026  -0.000068  -0.000007
   59  C  3  Z   -0.000000  -0.000000  -0.000000  -0.000000  -0.000000
   60  C  3  S    0.001176  -0.001006  -0.000789  -0.000347  -0.000078
   61  C  3  X   -0.000004  -0.000074  -0.000225   0.000053   0.000382
   62  C  3  Y   -0.000196  -0.000022  -0.000008  -0.000516  -0.000129
   63  C  3  Z   -0.000000  -0.000000  -0.000000  -0.000000  -0.000000
   64  C  3 XX   -0.000404   0.000143   0.000141  -0.000120  -0.000140
   65  C  3 YY   -0.000440   0.000084   0.000099  -0.000075  -0.000084
   66  C  3 ZZ   -0.000740   0.000140   0.000153  -0.000098  -0.000108
   67  C  3 XY    0.000012   0.000041   0.000050  -0.000048  -0.000049
   68  C  3 XZ   -0.000000  -0.000000  -0.000000  -0.000000  -0.000000
   69  C  3 YZ   -0.000000  -0.000000  -0.000000  -0.000000  -0.000000
   70  C  3 XX   -0.000602   0.000235   0.000143   0.000105   0.000680
   71  C  3 YY   -0.000444   0.000340   0.000249  -0.000152   0.000044
   72  C  3 ZZ   -0.000554   0.000257   0.000215  -0.000194  -0.000027
   73  C  3 XY   -0.000071  -0.000101  -0.000122   0.000034   0.000153
   74  C  3 XZ   -0.000000  -0.000000  -0.000000  -0.000000  -0.000000
   75  C  3 YZ   -0.000000  -0.000000  -0.000000  -0.000000  -0.000000
   76  C  4  S    0.277137   0.046320  -0.047308  -0.036615   0.037182
   77  C  4  S    0.228982   0.038283  -0.039089  -0.030272   0.030726
   78  C  4  X    0.000011   0.000105  -0.000090  -0.000103   0.000087
   79  C  4  Y   -0.000088  -0.000054   0.000059   0.000061  -0.000071
   80  C  4  Z   -0.000000  -0.000000  -0.000000  -0.000000  -0.000000
   81  C  4  S    0.003517   0.000138  -0.000312  -0.000233   0.000776
   82  C  4  X    0.000010   0.000046  -0.000119  -0.000093   0.000137
   83  C  4  Y    0.000380  -0.000052   0.000026   0.000068  -0.000007
   84  C  4  Z   -0.000000  -0.000000  -0.000000  -0.000000  -0.000000
   85  C  4  S    0.001176   0.001006  -0.000789   0.000347  -0.000078
   86  C  4  X    0.000004  -0.000074   0.000225   0.000053  -0.000382
   87  C  4  Y   -0.000196   0.000022  -0.000008   0.000516  -0.000129
   88  C  4  Z   -0.000000  -0.000000  -0.000000  -0.000000  -0.000000
   89  C  4 XX   -0.000404  -0.000143   0.000141   0.000120  -0.000140
   90  C  4 YY   -0.000440  -0.000084   0.000099   0.000075  -0.000084
   91  C  4 ZZ   -0.000740  -0.000140   0.000153   0.000098  -0.000108
   92  C  4 XY   -0.000012   0.000041  -0.000050  -0.000048   0.000049
   93  C  4 XZ   -0.000000  -0.000000  -0.000000  -0.000000  -0.000000
   94  C  4 YZ   -0.000000  -0.000000  -0.000000  -0.000000  -0.000000
   95  C  4 XX   -0.000602  -0.000235   0.000143  -0.000105   0.000680
   96  C  4 YY   -0.000444  -0.000340   0.000249   0.000152   0.000044
   97  C  4 ZZ   -0.000554  -0.000257   0.000215   0.000194  -0.000027
   98  C  4 XY    0.000071  -0.000101   0.000122   0.000034  -0.000153
   99  C  4 XZ   -0.000000  -0.000000  -0.000000  -0.000000  -0.000000
  100  C  4 YZ   -0.000000  -0.000000  -0.000000  -0.000000  -0.000000
  101  C  5  S   -0.277137  -0.046320  -0.047308  -0.036615  -0.037182
  102  C  5  S   -0.228982  -0.038283  -0.039089  -0.030272  -0.030726
  103  C  5  X    0.000011   0.000105   0.000090   0.000103   0.000087
  104  C  5  Y   -0.000088  -0.000054  -0.000059  -0.000061  -0.000071
  105  C  5  Z   -0.000000  -0.000000  -0.000000  -0.000000  -0.000000
  106  C  5  S   -0.003517  -0.000138  -0.000312  -0.000233  -0.000776
  107  C  5  X    0.000010   0.000046   0.000119   0.000093   0.000137
  108  C  5  Y    0.000380  -0.000052  -0.000026  -0.000068  -0.000007
  109  C  5  Z   -0.000000  -0.000000  -0.000000  -0.000000  -0.000000
  110  C  5  S   -0.001176  -0.001006  -0.000789   0.000347   0.000078
  111  C  5  X    0.000004  -0.000074  -0.000225  -0.000053  -0.000382
  112  C  5  Y   -0.000196   0.000022   0.000008  -0.000516  -0.000129
  113  C  5  Z   -0.000000  -0.000000  -0.000000  -0.000000  -0.000000
  114  C  5 XX    0.000404   0.000143   0.000141   0.000120   0.000140
  115  C  5 YY    0.000440   0.000084   0.000099   0.000075   0.000084
  116  C  5 ZZ    0.000740   0.000140   0.000153   0.000098   0.000108
  117  C  5 XY    0.000012  -0.000041  -0.000050  -0.000048  -0.000049
  118  C  5 XZ   -0.000000  -0.000000  -0.000000  -0.000000  -0.000000
  119  C  5 YZ   -0.000000  -0.000000  -0.000000  -0.000000  -0.000000
  120  C  5 XX    0.000602   0.000235   0.000143  -0.000105  -0.000680
  121  C  5 YY    0.000444   0.000340   0.000249   0.000152  -0.000044
  122  C  5 ZZ    0.000554   0.000257   0.000215   0.000194   0.000027
  123  C  5 XY   -0.000071   0.000101   0.000122   0.000034   0.000153
  124  C  5 XZ   -0.000000  -0.000000  -0.000000  -0.000000  -0.000000
  125  C  5 YZ   -0.000000  -0.000000  -0.000000  -0.000000  -0.000000
  126  C  6  S   -0.277137   0.046320  -0.047308   0.036615  -0.037182
  127  C  6  S   -0.228982   0.038283  -0.039089   0.030272  -0.030726
  128  C  6  X   -0.000011   0.000105  -0.000090   0.000103  -0.000087
  129  C  6  Y   -0.000088   0.000054  -0.000059   0.000061  -0.000071
  130  C  6  Z   -0.000000  -0.000000  -0.000000  -0.000000  -0.000000
  131  C  6  S   -0.003517   0.000138  -0.000312   0.000233  -0.000776
  132  C  6  X   -0.000010   0.000046  -0.000119   0.000093  -0.000137
  133  C  6  Y    0.000380   0.000052  -0.000026   0.000068  -0.000007
  134  C  6  Z   -0.000000  -0.000000  -0.000000  -0.000000  -0.000000
  135  C  6  S   -0.001176   0.001006  -0.000789  -0.000347   0.000078
  136  C  6  X   -0.000004  -0.000074   0.000225  -0.000053   0.000382
  137  C  6  Y   -0.000196  -0.000022   0.000008   0.000516  -0.000129
  138  C  6  Z   -0.000000  -0.000000  -0.000000  -0.000000  -0.000000
  139  C  6 XX    0.000404  -0.000143   0.000141  -0.000120   0.000140
  140  C  6 YY    0.000440  -0.000084   0.000099  -0.000075   0.000084
  141  C  6 ZZ    0.000740  -0.000140   0.000153  -0.000098   0.000108
  142  C  6 XY   -0.000012  -0.000041   0.000050  -0.000048   0.000049
  143  C  6 XZ   -0.000000  -0.000000  -0.000000  -0.000000  -0.000000
  144  C  6 YZ   -0.000000  -0.000000  -0.000000  -0.000000  -0.000000
  145  C  6 XX    0.000602  -0.000235   0.000143   0.000105  -0.000680
  146  C  6 YY    0.000444  -0.000340   0.000249  -0.000152  -0.000044
  147  C  6 ZZ    0.000554  -0.000257   0.000215  -0.000194   0.000027
  148  C  6 XY    0.000071   0.000101  -0.000122   0.000034  -0.000153
  149  C  6 XZ   -0.000000  -0.000000  -0.000000  -0.000000  -0.000000
  150  C  6 YZ   -0.000000  -0.000000  -0.000000  -0.000000  -0.000000
  151  C  7  S    0.037122   0.277888   0.277696  -0.279424  -0.279338
  152  C  7  S    0.030672   0.229621   0.229461  -0.230899  -0.230823
  153  C  7  X   -0.000094   0.000073   0.000076  -0.000068  -0.000076
  154  C  7  Y   -0.000057   0.000100   0.000099   0.000088   0.000086
  155  C  7  Z   -0.000000  -0.000000  -0.000000  -0.000000  -0.000000
  156  C  7  S    0.000281   0.003102   0.003145  -0.002815  -0.003158
  157  C  7  X   -0.000079  -0.000130  -0.000146   0.000129   0.000222
  158  C  7  Y   -0.000112   0.000219   0.000216   0.000135   0.000152
  159  C  7  Z   -0.000000  -0.000000  -0.000000  -0.000000  -0.000000
  160  C  7  S    0.001097   0.001924   0.001971  -0.001705  -0.002184
  161  C  7  X   -0.000246   0.000022   0.000020  -0.000602  -0.000122
  162  C  7  Y    0.000336  -0.000165  -0.000230   0.000178   0.000267
  163  C  7  Z   -0.000000  -0.000000  -0.000000  -0.000000  -0.000000
  164  C  7 XX    0.000013  -0.000424  -0.000425   0.000426   0.000417
  165  C  7 YY   -0.000037  -0.000316  -0.000321   0.000523   0.000529
  166  C  7 ZZ   -0.000084  -0.000717  -0.000717   0.000748   0.000745
  167  C  7 XY    0.000052   0.000009   0.000007  -0.000009   0.000001
  168  C  7 XZ   -0.000000  -0.000000  -0.000000  -0.000000  -0.000000
  169  C  7 YZ   -0.000000  -0.000000  -0.000000  -0.000000  -0.000000
  170  C  7 XX   -0.000384  -0.000769  -0.000742   0.000914   0.000790
  171  C  7 YY   -0.000253  -0.000890  -0.000864   0.000703   0.000414
  172  C  7 ZZ   -0.000115  -0.000642  -0.000630   0.000805   0.000713
  173  C  7 XY   -0.000081   0.000058   0.000056  -0.000126  -0.000362
  174  C  7 XZ   -0.000000  -0.000000  -0.000000  -0.000000  -0.000000
  175  C  7 YZ   -0.000000  -0.000000  -0.000000  -0.000000  -0.000000
  176  C  8  S    0.037122  -0.277888   0.277696   0.279424  -0.279338
  177  C  8  S    0.030672  -0.229621   0.229461   0.230899  -0.230823
  178  C  8  X    0.000094   0.000073  -0.000076  -0.000068   0.000076
  179  C  8  Y   -0.000057  -0.000100   0.000099  -0.000088   0.000086
  180  C  8  Z   -0.000000  -0.000000  -0.000000  -0.000000  -0.000000
  181  C  8  S    0.000281  -0.003102   0.003145   0.002815  -0.003158
  182  C  8  X    0.000079  -0.000130   0.000146   0.000129  -0.000222
  183  C  8  Y   -0.000112  -0.000219   0.000216  -0.000135   0.000152
  184  C  8  Z   -0.000000  -0.000000  -0.000000  -0.000000  -0.000000
  185  C  8  S    0.001097  -0.001924   0.001971   0.001705  -0.002184
  186  C  8  X    0.000246   0.000022  -0.000020  -0.000602   0.000122
  187  C  8  Y    0.000336   0.000165  -0.000230  -0.000178   0.000267
  188  C  8  Z   -0.000000  -0.000000  -0.000000  -0.000000  -0.000000
  189  C  8 XX    0.000013   0.000424  -0.000425  -0.000426   0.000417
  190  C  8 YY   -0.000037   0.000316  -0.000321  -0.000523   0.000529
  191  C  8 ZZ   -0.000084   0.000717  -0.000717  -0.000748   0.000745
  192  C  8 XY   -0.000052   0.000009  -0.000007  -0.000009  -0.000001
  193  C  8 XZ   -0.000000  -0.000000  -0.000000  -0.000000  -0.000000
  194  C  8 YZ   -0.000000  -0.000000  -0.000000  -0.000000  -0.000000
  195  C  8 XX   -0.000384   0.000769  -0.000742  -0.000914   0.000790
  196  C  8 YY   -0.000253   0.000890  -0.000864  -0.000703   0.000414
  197  C  8 ZZ   -0.000115   0.000642  -0.000630  -0.000805   0.000713
  198  C  8 XY    0.000081   0.000058  -0.000056  -0.000126   0.000362
  199  C  8 XZ   -0.000000  -0.000000  -0.000000  -0.000000  -0.000000
  200  C  8 YZ   -0.000000  -0.000000  -0.000000  -0.000000  -0.000000
  201  C  9  S   -0.037122   0.277888   0.277696   0.279424   0.279338
  202  C  9  S   -0.030672   0.229621   0.229461   0.230899   0.230823
  203  C  9  X    0.000094   0.000073   0.000076   0.000068   0.000076
  204  C  9  Y   -0.000057  -0.000100  -0.000099   0.000088   0.000086
  205  C  9  Z   -0.000000  -0.000000  -0.000000  -0.000000  -0.000000
  206  C  9  S   -0.000281   0.003102   0.003145   0.002815   0.003158
  207  C  9  X    0.000079  -0.000130  -0.000146  -0.000129  -0.000222
  208  C  9  Y   -0.000112  -0.000219  -0.000216   0.000135   0.000152
  209  C  9  Z   -0.000000  -0.000000  -0.000000  -0.000000  -0.000000
  210  C  9  S   -0.001097   0.001924   0.001971   0.001705   0.002184
  211  C  9  X    0.000246   0.000022   0.000020   0.000602   0.000122
  212  C  9  Y    0.000336   0.000165   0.000230   0.000178   0.000267
  213  C  9  Z   -0.000000  -0.000000  -0.000000  -0.000000  -0.000000
  214  C  9 XX   -0.000013  -0.000424  -0.000425  -0.000426  -0.000417
  215  C  9 YY    0.000037  -0.000316  -0.000321  -0.000523  -0.000529
  216  C  9 ZZ    0.000084  -0.000717  -0.000717  -0.000748  -0.000745
  217  C  9 XY    0.000052  -0.000009  -0.000007  -0.000009   0.000001
  218  C  9 XZ   -0.000000  -0.000000  -0.000000  -0.000000  -0.000000
  219  C  9 YZ   -0.000000  -0.000000  -0.000000  -0.000000  -0.000000
  220  C  9 XX    0.000384  -0.000769  -0.000742  -0.000914  -0.000790
  221  C  9 YY    0.000253  -0.000890  -0.000864  -0.000703  -0.000414
  222  C  9 ZZ    0.000115  -0.000642  -0.000630  -0.000805  -0.000713
  223  C  9 XY   -0.000081  -0.000058  -0.000056  -0.000126  -0.000362
  224  C  9 XZ   -0.000000  -0.000000  -0.000000  -0.000000  -0.000000
  225  C  9 YZ   -0.000000  -0.000000  -0.000000  -0.000000  -0.000000
  226  C 10  S   -0.037122  -0.277888   0.277696  -0.279424   0.279338
  227  C 10  S   -0.030672  -0.229621   0.229461  -0.230899   0.230823
  228  C 10  X   -0.000094   0.000073  -0.000076   0.000068  -0.000076
  229  C 10  Y   -0.000057   0.000100  -0.000099  -0.000088   0.000086
  230  C 10  Z   -0.000000  -0.000000  -0.000000  -0.000000  -0.000000
  231  C 10  S   -0.000281  -0.003102   0.003145  -0.002815   0.003158
  232  C 10  X   -0.000079  -0.000130   0.000146  -0.000129   0.000222
  233  C 10  Y   -0.000112   0.000219  -0.000216  -0.000135   0.000152
  234  C 10  Z   -0.000000  -0.000000  -0.000000  -0.000000  -0.000000
  235  C 10  S   -0.001097  -0.001924   0.001971  -0.001705   0.002184
  236  C 10  X   -0.000246   0.000022  -0.000020   0.000602  -0.000122
  237  C 10  Y    0.000336  -0.000165   0.000230  -0.000178   0.000267
  238  C 10  Z   -0.000000  -0.000000  -0.000000  -0.000000  -0.000000
  239  C 10 XX   -0.000013   0.000424  -0.000425   0.000426  -0.000417
[...]
     --------------------------------------------------

 THE NUMBER OF DETERMINANTS HAVING SPACE SYMMETRY A  
 IN POINT GROUP C1   WITH SZ=  0.0 IS            100
 WHICH INCLUDES             50 CSFS WITH S=  0.0
 WHICH INCLUDES             45 CSFS WITH S=  1.0
 WHICH INCLUDES              5 CSFS WITH S=  2.0
 THE DETERMINANT FULL CI REQUIRES          219273 WORDS
 SMALL CI MATRIX, JUST USING INCORE DIAGONALIZATION...

 CI EIGENVECTORS WILL BE LABELED IN GROUP=C1      
 PRINTING CI COEFFICIENTS LARGER THAN 5.000E-02

 STATE   1  ENERGY=      -383.4563987477  S=  0.00  SZ=  0.00  SPACE SYM=A   

ALPHA  |BETA   | CI COEFFICIENT
-------|-------|---------------
 11100 | 11100 |   0.9750069548
 11010 | 11010 |  -0.0999249695
 10101 | 10101 |  -0.0966782101
 10011 | 11100 |   0.0784312039
 11100 | 10011 |   0.0784312039
 10110 | 11001 |  -0.0590000369
 11001 | 10110 |  -0.0590000369
 10110 | 10110 |  -0.0527390320

 STATE   2  ENERGY=      -383.3137686836  S=  1.00  SZ=  0.00  SPACE SYM=A   

ALPHA  |BETA   | CI COEFFICIENT
-------|-------|---------------
 11100 | 11010 |   0.6860300606
 11010 | 11100 |  -0.6860300606
 11100 | 10101 |   0.1018672223
 10101 | 11100 |  -0.1018672223
 11001 | 01110 |   0.0735289338
 01110 | 11001 |  -0.0735289338
 10011 | 10101 |   0.0708735551
 10101 | 10011 |  -0.0708735551
 10110 | 01110 |   0.0537681351
 01110 | 10110 |  -0.0537681351

 STATE   3  ENERGY=      -383.2671806000  S=  1.00  SZ=  0.00  SPACE SYM=A   

ALPHA  |BETA   | CI COEFFICIENT
-------|-------|---------------
 11100 | 11001 |   0.5152930296
 11001 | 11100 |  -0.5152930296
 10110 | 11100 |  -0.4660142339
 11100 | 10110 |   0.4660142339
 10110 | 01101 |   0.0976385455
 01101 | 10110 |  -0.0976385455
 00111 | 11100 |  -0.0507937844
 11100 | 00111 |   0.0507937844

 STATE   4  ENERGY=      -383.2567081965  S=  1.00  SZ=  0.00  SPACE SYM=A   

ALPHA  |BETA   | CI COEFFICIENT
-------|-------|---------------
 11100 | 10101 |   0.6896583127
 10101 | 11100 |  -0.6896583127
 11010 | 11100 |   0.1025593407
 11100 | 11010 |  -0.1025593407
 11010 | 10011 |  -0.0656165165
 10011 | 11010 |   0.0656165165

 STATE   5  ENERGY=      -383.2538079749  S=  1.00  SZ=  0.00  SPACE SYM=A   

ALPHA  |BETA   | CI COEFFICIENT
-------|-------|---------------
 11100 | 10110 |   0.5206775125
 10110 | 11100 |  -0.5206775125
 11100 | 11001 |  -0.4674553879
 11001 | 11100 |   0.4674553879
 10011 | 11001 |  -0.0572451043
 11001 | 10011 |   0.0572451043
 10011 | 10110 |   0.0509060194
 10110 | 10011 |  -0.0509060194

 STATE   6  ENERGY=      -383.2534340956  S=  0.00  SZ=  0.00  SPACE SYM=A   

ALPHA  |BETA   | CI COEFFICIENT
-------|-------|---------------
 11001 | 11100 |   0.5134661944
 11100 | 11001 |   0.5134661944
 10110 | 11100 |  -0.4602503881
 11100 | 10110 |  -0.4602503881
 01101 | 11001 |   0.0796123251
 11001 | 01101 |   0.0796123251
 01101 | 10110 |   0.0793695968
 10110 | 01101 |   0.0793695968
 ..... DONE WITH DETERMINANT CI COMPUTATION .....
 CPU     0: STEP CPU TIME=     0.01 TOTAL CPU TIME=         44.7 (      0.7 MIN)
 TOTAL WALL CLOCK TIME=         52.3 SECONDS, CPU UTILIZATION IS    85.54%

     --------------------------------------------------
      ONE AND TWO PARTICLE DENSITY MATRIX COMPUTATION
     PROGRAM WRITTEN BY JOE IVANIC AND KLAUS RUEDENBERG
     --------------------------------------------------

      31891 WORDS WILL BE USED TO FORM THE DENSITIES
 THE DENSITIES ARE STATE AVERAGED OVER   2 ROOT(S)
 STATE=   1   ENERGY=     -383.4563987477   WEIGHT= 0.50000   S=  0.00
 STATE=   6   ENERGY=     -383.2534340956   WEIGHT= 0.50000   S=  0.00
 SIEVING THE A    SYMMETRY NONZERO DENSITY ELEMENTS IN GROUP C1      
         39 NONZERO DM2 ELEMENTS WRITTEN IN       1 RECORDS TO FILE 15
 ..... DONE WITH 1 AND 2 PARTICLE DENSITY MATRIX .....
 CPU     0: STEP CPU TIME=     0.00 TOTAL CPU TIME=         44.7 (      0.7 MIN)
 TOTAL WALL CLOCK TIME=         52.3 SECONDS, CPU UTILIZATION IS    85.53%
 FREEING DISTRIBUTED STORAGE FOR [OCC OCC|OCC OCC] INTEGRALS
 .....DONE WITH MCSCF ITERATIONS.....
 CPU     0: STEP CPU TIME=     0.00 TOTAL CPU TIME=         44.7 (      0.7 MIN)
 TOTAL WALL CLOCK TIME=         52.3 SECONDS, CPU UTILIZATION IS    85.53%

     ----------------------------------------------------------------
     PROPERTY VALUES FOR THE MCSCF SELF-CONSISTENT FIELD WAVEFUNCTION
     ----------------------------------------------------------------

 THIS MCSCF AVERAGED   2 ROOTS OF DIFFERENT ENERGY.
 SINCE NO STATE-SPECIFIC DENSITY MATRIX IS AVAILABLE,
 PROPERTIES WILL NOT BE COMPUTED.


     --------------------------------------------
     PARTIAL TWO ELECTRON INTEGRAL TRANSFORMATION
     --------------------------------------------

 NUMBER OF CORE MOLECULAR ORBITALS     =    0
 NUMBER OF OCCUPIED MOLECULAR ORBITALS =   36
 TOTAL NUMBER OF MOLECULAR ORBITALS    =  274
 TOTAL NUMBER OF ATOMIC ORBITALS       =  274
 THRESHOLD FOR KEEPING TRANSFORMED 2E- INTEGRALS = 1.000E-09

 -------------------------------     ------------------------------
 DISTRIBUTED DATA TRANSFORMATION     PROGRAM WRITTEN BY G. FLETCHER
 -------------------------------     ------------------------------

 THE DISTRIBUTED MEMORY REQUIRED FOR THIS STEP IS MEMDDI=        82 MWORDS
 CREATING DISTRIBUTED STORAGE FOR [VIR OCC|VIR OCC] INTEGRALS
 DDI: Creating Array [0] - 75076 x 666 = 50000616 words.
 CREATING DISTRIBUTED STORAGE FOR [VIR OCC|OCC OCC] INTEGRALS
 DDI: Creating Array [1] - 238 x 23976 = 5706288 words.
 CREATING DISTRIBUTED STORAGE FOR [OCC OCC|OCC OCC] INTEGRALS
 DDI: Creating Array [2] - 666 x 666 = 443556 words.
 CREATING DISTRIBUTED STORAGE FOR [VIR VIR|OCC OCC] INTEGRALS
 DDI: Creating Array [3] - 37675 x 666 = 25091550 words.
 FOR   32 PROCESSORS, THE REPLICATED MEMORY NEEDED IS     1059754 WORDS.
 SCHWARZ INEQUALITY OVERHEAD:     36297 INTEGRALS, T=        0.00

      DIRECT 4-INDEX TRANSFORMATION 
      SCHWARZ INEQUALITY TEST SKIPPED    4480720 INTEGRAL BLOCKS
 ... END OF INTEGRAL TRANSFORMATION ...
 CPU     0: STEP CPU TIME=     5.99 TOTAL CPU TIME=         50.7 (      0.8 MIN)
 TOTAL WALL CLOCK TIME=         58.4 SECONDS, CPU UTILIZATION IS    86.80%

     ---------------------------------------------
     1ST AND 2ND INTEGRAL DERIVATIVE CONTRIBUTIONS
     ---------------------------------------------
 ...... END OF 1-ELECTRON GRAD+HESS+FOCKDER ......
 CPU     0: STEP CPU TIME=     0.20 TOTAL CPU TIME=         50.9 (      0.8 MIN)
 TOTAL WALL CLOCK TIME=         58.7 SECONDS, CPU UTILIZATION IS    86.68%

     ----------------------------------------------
     TWO ELECTRON INTEGRAL DERIVATIVE CONTRIBUTIONS
     ----------------------------------------------

    9081521 WORDS REQUIRED, 199999999 WORDS AVAILABLE
 THE COARSE/FINE SCHWARZ SCREENINGS SKIPPED          0/   2089982 BLOCKS.
 THE NUMBER OF DERIVATIVE INTEGRAL BLOCKS COMPUTED WAS   4281775
 CPU     0: STEP CPU TIME=    77.30 TOTAL CPU TIME=        128.2 (      2.1 MIN)
 TOTAL WALL CLOCK TIME=        137.2 SECONDS, CPU UTILIZATION IS    93.42%
 ...... END OF 2-ELECTRON GRAD+HESS+LAGDER ......
 CPU     0: STEP CPU TIME=     0.00 TOTAL CPU TIME=        128.2 (      2.1 MIN)
 TOTAL WALL CLOCK TIME=        137.2 SECONDS, CPU UTILIZATION IS    93.42%
 COMPUTING NACME FOR STATE WITH E=     -383.4563987477 S=  0.0
 COMPUTING NACME FOR STATE WITH E=     -383.2534340956 S=  0.0

     -------------------------------------------------
     COUPLED-PERTURBED MULTICONFIGURATION HARTREE-FOCK
     Z-VECTOR VERSION
     -------------------------------------------------

 SETTING UP RIGHT-HAND SIDE OF CPMCHF EQUATIONS.
 # OF WORDS REQUIRED  =   11358111
 # OF WORDS AVAILABLE =  199999999
 NOTE THAT THE CP-MCHF DISTRIBUTED MEMORY REQUIREMENTS ARE JUST THE
 MEMORY NEEDED TO STORE TRANSFORMED INTEGRAL CLASSES (ALLOCATED ABOVE).

  --- DIPOLE MOMENTS (DEBYE) ---
  1,  1 :  DIPOLE    0.000000    0.000000    0.000000    0.000000
  1,  2 : TDIPOLE    0.484324   -0.000000    0.000000    0.484324
  2,  2 :  DIPOLE    0.000000    0.000000    0.000000    0.000000

  --- OSCILLATOR STRENGTHS  ---

             1           2

    1    0.0000000
    2    0.0049128   0.0000000


 CALCULATING MCSCF ELECTRONIC HESSIAN ON THE FLY.
 # OF ORBITAL ROTATIONS   =       8723
 LENGTH OF DET. EXPANSION =        100

 SOLVING CPMCHF EQUATIONS - ESSENTIAL MEMORY.
 # OF WORDS REQUIRED  =   12356937
 # OF WORDS AVAILABLE =  199999999
 DDI: Creating Array [4] - 1 x 32 = 32 words.
 DDI: Creating Array [5] - 1 x 32 = 32 words.
 DDI: Creating Array [6] - 1 x 32 = 32 words.
 DDI: Creating Array [7] - 1 x 32 = 32 words.

 MASTER NODE HAS FINISHED WITH (OO|OO) INTEGRALS, T=    0.0
 MASTER NODE HAS FINISHED WITH (VO|OO) INTEGRALS, T=    0.3
 MASTER NODE HAS FINISHED WITH (VV|OO) INTEGRALS, T=    0.1
 MASTER NODE HAS FINISHED WITH (VO|VO) INTEGRALS, T=    0.0

 FINISHED SETTING UP RIGHT-HAND SIDE.
 CPU     0: STEP CPU TIME=     9.75 TOTAL CPU TIME=        138.0 (      2.3 MIN)
 TOTAL WALL CLOCK TIME=        152.4 SECONDS, CPU UTILIZATION IS    90.50%

 SOLVING FOR    3 NUCLEAR RESPONSES AND 0 ELECTRIC FIELD RESPONSES

 POSSIBLE RESET OF SMALL PRECONDITIONING ELEMENTS TO 1:
 ORBITAL ELEMENTS RESET     =        300
 DETERMINANT ELEMENTS RESET =          7

 SOLVING CPMCHF EQUATIONS - EXTRA SOLVER MEMORY.
 # OF WORDS REQUIRED  =    1926716
 # OF WORDS AVAILABLE =  187643062

 PRECONDITIONED GCRODR SOLVER   CONV. TOLERANCE=1.00E-07
 ITER   RESPONSE ERROR    IMPROVED     ORB-ORB     CI-ORB
   1      9.92390E-02         3            1.3        0.0
   2      6.59256E-05         3            1.3        0.0
   3      1.48523E-07         1            1.3        0.0
   4      3.91643E-10         0            1.3        0.0
 THE CPMCHF HAS CONVERGED AFTER   4 ITERATIONS.

 STATE-SPECIFIC GRADIENT OF STATE   1 (OVERALL STATE   1)
 ENERGY=     -383.4563987477 SPIN=  0.00 WEIGHT= 0.500000

 UNITS ARE HARTREE/BOHR    E'X               E'Y               E'Z 
    1 C               -0.000000012      -0.045823953       0.000000000
    2 C               -0.000000012       0.045823953       0.000000000
    3 C               -0.014154932      -0.007389220      -0.000000000
    4 C                0.014154929      -0.007389206       0.000000000
    5 C               -0.014154933       0.007389220      -0.000000000
    6 C                0.014154929       0.007389206       0.000000000
    7 C                0.019583913       0.005287625       0.000000000
    8 C               -0.019583898       0.005287588      -0.000000000
    9 C                0.019583913      -0.005287625       0.000000000
   10 C               -0.019583898      -0.005287588      -0.000000000
   11 H               -0.000148890       0.000286815      -0.000000000
   12 H                0.000148890       0.000286815       0.000000000
   13 H               -0.000148890      -0.000286815      -0.000000000
   14 H                0.000148890      -0.000286815       0.000000000
   15 H               -0.000445993       0.000374876       0.000000000
   16 H                0.000445994       0.000374876      -0.000000000
   17 H               -0.000445993      -0.000374876       0.000000000
   18 H                0.000445994      -0.000374876      -0.000000000

 STATE-SPECIFIC GRADIENT OF STATE   2 (OVERALL STATE   6)
 ENERGY=     -383.2534340956 SPIN=  0.00 WEIGHT= 0.500000

 UNITS ARE HARTREE/BOHR    E'X               E'Y               E'Z 
    1 C                0.000000012       0.000535787       0.000000000
    2 C                0.000000012      -0.000535787       0.000000000
    3 C                0.000188090       0.000115992      -0.000000000
    4 C               -0.000188087       0.000115977       0.000000000
    5 C                0.000188090      -0.000115992      -0.000000000
    6 C               -0.000188087      -0.000115977       0.000000000
    7 C               -0.000024707      -0.000206260       0.000000000
    8 C                0.000024692      -0.000206223      -0.000000000
    9 C               -0.000024707       0.000206260       0.000000000
   10 C                0.000024692       0.000206223      -0.000000000
   11 H                0.000023624      -0.000021614      -0.000000000
   12 H               -0.000023624      -0.000021614       0.000000000
   13 H                0.000023624       0.000021614      -0.000000000
   14 H               -0.000023624       0.000021614       0.000000000
   15 H               -0.000005317      -0.000006901       0.000000000
   16 H                0.000005317      -0.000006900      -0.000000000
   17 H               -0.000005317       0.000006901       0.000000000
   18 H                0.000005317       0.000006900      -0.000000000

 NACME FOR STATE J->I HAVE OPPOSITE SIGN TO THE NACME CONNECTING STATE I->J,
 SO ONLY NACME FOR I>J ARE PRINTED, FOR STATES WITH SPIN QUANTUM NO. S=  0.00

 NONADIABATIC COUPLING MATRIX ELEMENT (NACME), IN ONE/BOHR
 <STATE  2, WEIGHT=   0.50000 | D/DQ | STATE  1, WEIGHT=   0.50000>
   ATOM               D/DX           D/DY           D/DZ
    1 C              -0.4531634      0.0000000     -0.0000000
    2 C              -0.4531634      0.0000000     -0.0000000
    3 C               0.4587612     -0.0052455      0.0000000
    4 C               0.4587612      0.0052455      0.0000000
    5 C               0.4587612      0.0052455      0.0000000
    6 C               0.4587612     -0.0052455      0.0000000
    7 C              -0.2220511     -0.3851768      0.0000000
    8 C              -0.2220511      0.3851768      0.0000000
    9 C              -0.2220511      0.3851768      0.0000000
   10 C              -0.2220511     -0.3851768      0.0000000
   11 H               0.0041119      0.0017179      0.0000000
   12 H               0.0041119     -0.0017179      0.0000000
   13 H               0.0041119     -0.0017179      0.0000000
   14 H               0.0041119      0.0017179      0.0000000
   15 H              -0.0033248     -0.0057070     -0.0000000
   16 H              -0.0033248      0.0057070     -0.0000000
   17 H              -0.0033248      0.0057070     -0.0000000
   18 H              -0.0033248     -0.0057070     -0.0000000

 TOTAL REPLICATED MEMORY USED FOR NACME RESPONSES=     14283653 WORDS.
 FREEING DISTRIBUTED STORAGE FOR [VIR VIR|OCC OCC] INTEGRALS
 FREEING DISTRIBUTED STORAGE FOR [OCC OCC|OCC OCC] INTEGRALS
 FREEING DISTRIBUTED STORAGE FOR [VIR OCC|OCC OCC] INTEGRALS
 FREEING DISTRIBUTED STORAGE FOR [VIR OCC|VIR OCC] INTEGRALS

 ...... DONE WITH CPMCHF EQUATIONS ......
 CPU     0: STEP CPU TIME=    59.10 TOTAL CPU TIME=        197.1 (      3.3 MIN)
 TOTAL WALL CLOCK TIME=        213.7 SECONDS, CPU UTILIZATION IS    92.22%
             14283653  WORDS OF DYNAMIC MEMORY USED
 EXECUTION OF GAMESS TERMINATED NORMALLY 11:09:24 29-SEP-2021    
 DDI: 20745728 bytes (19.8 MB / 2 MWords) used by master data server.

 ----------------------------------------
 CPU timing information for all processes
 ========================================
 0: 194.80 + 3.55 = 197.136
 1: 144.42 + 1.578 = 145.621
 2: 145.108 + 2.281 = 147.390
 3: 143.932 + 1.713 = 145.645
 4: 143.266 + 2.611 = 145.878
 5: 140.571 + 1.788 = 142.359
 6: 142.655 + 2.358 = 145.13
 7: 141.31 + 1.647 = 142.678
 8: 142.491 + 2.860 = 145.352
 9: 143.561 + 1.698 = 145.259
 10: 143.530 + 2.238 = 145.769
 11: 139.758 + 1.803 = 141.562
 12: 141.727 + 2.625 = 144.352
 13: 142.920 + 1.729 = 144.650
 14: 143.383 + 2.334 = 145.718
 15: 144.472 + 1.671 = 146.144
 16: 145.363 + 3.115 = 148.478
 17: 144.339 + 1.613 = 145.953
 18: 144.256 + 2.220 = 146.477
 19: 142.729 + 1.549 = 144.279
 20: 145.11 + 2.633 = 147.644
 21: 144.37 + 1.566 = 145.604
 22: 140.133 + 1.943 = 142.77
 23: 142.838 + 1.427 = 144.265
 24: 143.733 + 2.830 = 146.564
 25: 143.196 + 1.678 = 144.875
 26: 140.783 + 2.371 = 143.154
 27: 140.109 + 1.480 = 141.590
 28: 142.527 + 2.246 = 144.773
 29: 140.419 + 1.549 = 141.969
 30: 141.641 + 2.157 = 143.798
 31: 139.273 + 1.586 = 140.859
 ----------------------------------------
 ddikick.x: exited gracefully.
----- accounting info -----
Files used on the master node logoc were:
-rw-r--r-- 1 root root  1217574 сен 29 11:05 /media/arthur/temp/naphthalene_opt1SB3u_nacme.F05
-rw-r--r-- 1 root root   301408 сен 29 11:09 /media/arthur/temp/naphthalene_opt1SB3u_nacme.F09
-rw-r--r-- 1 root root 12826240 сен 29 11:09 /media/arthur/temp/naphthalene_opt1SB3u_nacme.F10
-rw-r--r-- 1 root root     4872 сен 29 11:06 /media/arthur/temp/naphthalene_opt1SB3u_nacme.F12
-rw-r--r-- 1 root root   245352 сен 29 11:06 /media/arthur/temp/naphthalene_opt1SB3u_nacme.F15
-rw-r--r-- 1 root root        0 сен 29 11:05 /media/arthur/temp/naphthalene_opt1SB3u_nacme.F16
-rw-r--r-- 1 root root 32433264 сен 29 11:09 /media/arthur/temp/naphthalene_opt1SB3u_nacme.F18
-rw-r--r-- 1 root root     3888 сен 29 11:09 /media/arthur/temp/naphthalene_opt1SB3u_nacme.F19
-rw-r--r-- 1 root root     3888 сен 29 11:09 /media/arthur/temp/naphthalene_opt1SB3u_nacme.F19.001
-rw-r--r-- 1 root root     3888 сен 29 11:09 /media/arthur/temp/naphthalene_opt1SB3u_nacme.F19.002
-rw-r--r-- 1 root root     3888 сен 29 11:09 /media/arthur/temp/naphthalene_opt1SB3u_nacme.F19.003
-rw-r--r-- 1 root root     3888 сен 29 11:09 /media/arthur/temp/naphthalene_opt1SB3u_nacme.F19.004
-rw-r--r-- 1 root root     3888 сен 29 11:09 /media/arthur/temp/naphthalene_opt1SB3u_nacme.F19.005
-rw-r--r-- 1 root root     3888 сен 29 11:09 /media/arthur/temp/naphthalene_opt1SB3u_nacme.F19.006
-rw-r--r-- 1 root root     3888 сен 29 11:09 /media/arthur/temp/naphthalene_opt1SB3u_nacme.F19.007
-rw-r--r-- 1 root root     3888 сен 29 11:09 /media/arthur/temp/naphthalene_opt1SB3u_nacme.F19.008
-rw-r--r-- 1 root root     3888 сен 29 11:09 /media/arthur/temp/naphthalene_opt1SB3u_nacme.F19.009
-rw-r--r-- 1 root root     3888 сен 29 11:09 /media/arthur/temp/naphthalene_opt1SB3u_nacme.F19.010
-rw-r--r-- 1 root root     3888 сен 29 11:09 /media/arthur/temp/naphthalene_opt1SB3u_nacme.F19.011
-rw-r--r-- 1 root root     3888 сен 29 11:09 /media/arthur/temp/naphthalene_opt1SB3u_nacme.F19.012
-rw-r--r-- 1 root root     3888 сен 29 11:09 /media/arthur/temp/naphthalene_opt1SB3u_nacme.F19.013
-rw-r--r-- 1 root root     3888 сен 29 11:09 /media/arthur/temp/naphthalene_opt1SB3u_nacme.F19.014
-rw-r--r-- 1 root root     3888 сен 29 11:09 /media/arthur/temp/naphthalene_opt1SB3u_nacme.F19.015
-rw-r--r-- 1 root root     3888 сен 29 11:09 /media/arthur/temp/naphthalene_opt1SB3u_nacme.F19.016
-rw-r--r-- 1 root root     3888 сен 29 11:09 /media/arthur/temp/naphthalene_opt1SB3u_nacme.F19.017
-rw-r--r-- 1 root root     3888 сен 29 11:09 /media/arthur/temp/naphthalene_opt1SB3u_nacme.F19.018
-rw-r--r-- 1 root root     3888 сен 29 11:09 /media/arthur/temp/naphthalene_opt1SB3u_nacme.F19.019
-rw-r--r-- 1 root root     3888 сен 29 11:09 /media/arthur/temp/naphthalene_opt1SB3u_nacme.F19.020
-rw-r--r-- 1 root root     3888 сен 29 11:09 /media/arthur/temp/naphthalene_opt1SB3u_nacme.F19.021
-rw-r--r-- 1 root root     3888 сен 29 11:09 /media/arthur/temp/naphthalene_opt1SB3u_nacme.F19.022
-rw-r--r-- 1 root root     3888 сен 29 11:09 /media/arthur/temp/naphthalene_opt1SB3u_nacme.F19.023
-rw-r--r-- 1 root root     3888 сен 29 11:09 /media/arthur/temp/naphthalene_opt1SB3u_nacme.F19.024
-rw-r--r-- 1 root root     3888 сен 29 11:09 /media/arthur/temp/naphthalene_opt1SB3u_nacme.F19.025
-rw-r--r-- 1 root root     3888 сен 29 11:09 /media/arthur/temp/naphthalene_opt1SB3u_nacme.F19.026
-rw-r--r-- 1 root root     3888 сен 29 11:09 /media/arthur/temp/naphthalene_opt1SB3u_nacme.F19.027
-rw-r--r-- 1 root root     3888 сен 29 11:09 /media/arthur/temp/naphthalene_opt1SB3u_nacme.F19.028
-rw-r--r-- 1 root root     3888 сен 29 11:09 /media/arthur/temp/naphthalene_opt1SB3u_nacme.F19.029
-rw-r--r-- 1 root root     3888 сен 29 11:09 /media/arthur/temp/naphthalene_opt1SB3u_nacme.F19.030
-rw-r--r-- 1 root root     3888 сен 29 11:09 /media/arthur/temp/naphthalene_opt1SB3u_nacme.F19.031
Ср сен 29 11:09:27 MSK 2021
0.0u 0.1s 3:36.97 0.0% 0+0k 0+2384io 0pf+0w
